ITEM: TIMESTEP
0
ITEM: NUMBER OF ATOMS
219
ITEM: BOX BOUNDS pp pp pp
-8.8438840853035678e+00 8.8438840853035678e+00
-8.8438840853035678e+00 8.8438840853035678e+00
-8.8438840853035678e+00 8.8438840853035678e+00
ITEM: ATOMS id x y vx vy
1 -7.9595 -7.9595 0 0
2 -7.9595 -6.96456 0 0
17 -6.96456 -7.9595 0 0
18 -6.96456 -6.96456 0 0
33 -5.96962 -7.9595 0 0
34 -5.96962 -6.96456 0 0
49 -4.97468 -7.9595 0 0
50 -4.97468 -6.96456 0 0
65 -3.97975 -7.9595 0 0
66 -3.97975 -6.96456 0 0
81 -2.98481 -7.9595 0 0
82 -2.98481 -6.96456 0 0
94 -1.98987 -7.9595 0 0
95 -1.98987 -6.96456 0 0
105 -0.994937 -7.9595 0 0
106 -0.994937 -6.96456 0 0
114 7.36401e-16 -7.9595 0 0
115 7.36401e-16 -6.96456 0 0
123 0.994937 -7.9595 0 0
124 0.994937 -6.96456 0 0
132 1.98987 -7.9595 0 0
133 1.98987 -6.96456 0 0
143 2.98481 -7.9595 0 0
144 2.98481 -6.96456 0 0
156 3.97975 -7.9595 0 0
157 3.97975 -6.96456 0 0
172 4.97468 -7.9595 0 0
173 4.97468 -6.96456 0 0
188 5.96962 -7.9595 0 0
189 5.96962 -6.96456 0 0
204 6.96456 -7.9595 0 0
205 6.96456 -6.96456 0 0
3 -7.9595 -5.96962 0 0
4 -7.9595 -4.97468 0 0
19 -6.96456 -5.96962 0 0
20 -6.96456 -4.97468 0 0
35 -5.96962 -5.96962 0 0
36 -5.96962 -4.97468 0 0
51 -4.97468 -5.96962 0 0
52 -4.97468 -4.97468 0 0
67 -3.97975 -5.96962 0 0
68 -3.97975 -4.97468 0 0
83 -2.98481 -5.96962 0 0
84 -2.98481 -4.97468 0 0
96 -1.98987 -5.96962 0 0
97 -1.98987 -4.97468 0 0
107 -0.994937 -5.96962 0 0
108 -0.994937 -4.97468 0 0
116 7.36401e-16 -5.96962 0 0
117 7.36401e-16 -4.97468 0 0
125 0.994937 -5.96962 0 0
126 0.994937 -4.97468 0 0
134 1.98987 -5.96962 0 0
135 1.98987 -4.97468 0 0
145 2.98481 -5.96962 0 0
146 2.98481 -4.97468 0 0
158 3.97975 -5.96962 0 0
159 3.97975 -4.97468 0 0
174 4.97468 -5.96962 0 0
175 4.97468 -4.97468 0 0
190 5.96962 -5.96962 0 0
191 5.96962 -4.97468 0 0
206 6.96456 -5.96962 0 0
207 6.96456 -4.97468 0 0
5 -7.9595 -3.97975 0 0
6 -7.9595 -2.98481 0 0
21 -6.96456 -3.97975 0 0
22 -6.96456 -2.98481 0 0
37 -5.96962 -3.97975 0 0
38 -5.96962 -2.98481 0 0
53 -4.97468 -3.97975 0 0
54 -4.97468 -2.98481 0 0
69 -3.97975 -3.97975 0 0
70 -3.97975 -2.98481 0 0
85 -2.98481 -3.97975 0 0
86 -2.98481 -2.98481 0 0
98 -1.98987 -3.97975 0 0
99 -1.98987 -2.98481 0 0
109 -0.994937 -3.97975 0 0
118 7.36401e-16 -3.97975 0 0
127 0.994937 -3.97975 0 0
136 1.98987 -3.97975 0 0
137 1.98987 -2.98481 0 0
147 2.98481 -3.97975 0 0
148 2.98481 -2.98481 0 0
160 3.97975 -3.97975 0 0
161 3.97975 -2.98481 0 0
176 4.97468 -3.97975 0 0
177 4.97468 -2.98481 0 0
192 5.96962 -3.97975 0 0
193 5.96962 -2.98481 0 0
208 6.96456 -3.97975 0 0
209 6.96456 -2.98481 0 0
7 -7.9595 -1.98987 0 0
8 -7.9595 -0.994937 0 0
23 -6.96456 -1.98987 0 0
24 -6.96456 -0.994937 0 0
39 -5.96962 -1.98987 0 0
40 -5.96962 -0.994937 0 0
55 -4.97468 -1.98987 0 0
56 -4.97468 -0.994937 0 0
71 -3.97975 -1.98987 0 0
72 -3.97975 -0.994937 0 0
87 -2.98481 -1.98987 0 0
149 2.98481 -1.98987 0 0
162 3.97975 -1.98987 0 0
163 3.97975 -0.994937 0 0
178 4.97468 -1.98987 0 0
179 4.97468 -0.994937 0 0
194 5.96962 -1.98987 0 0
195 5.96962 -0.994937 0 0
210 6.96456 -1.98987 0 0
211 6.96456 -0.994937 0 0
9 -7.9595 7.36401e-16 0 0
25 -6.96456 7.36401e-16 0 0
41 -5.96962 7.36401e-16 0 0
57 -4.97468 7.36401e-16 0 0
73 -3.97975 7.36401e-16 0 0
164 3.97975 7.36401e-16 0 0
180 4.97468 7.36401e-16 0 0
196 5.96962 7.36401e-16 0 0
212 6.96456 7.36401e-16 0 0
10 -7.9595 0.994937 0 0
11 -7.9595 1.98987 0 0
26 -6.96456 0.994937 0 0
27 -6.96456 1.98987 0 0
42 -5.96962 0.994937 0 0
43 -5.96962 1.98987 0 0
58 -4.97468 0.994937 0 0
59 -4.97468 1.98987 0 0
74 -3.97975 0.994937 0 0
75 -3.97975 1.98987 0 0
88 -2.98481 1.98987 0 0
150 2.98481 1.98987 0 0
165 3.97975 0.994937 0 0
166 3.97975 1.98987 0 0
181 4.97468 0.994937 0 0
182 4.97468 1.98987 0 0
197 5.96962 0.994937 0 0
198 5.96962 1.98987 0 0
213 6.96456 0.994937 0 0
214 6.96456 1.98987 0 0
12 -7.9595 2.98481 0 0
13 -7.9595 3.97975 0 0
28 -6.96456 2.98481 0 0
29 -6.96456 3.97975 0 0
44 -5.96962 2.98481 0 0
45 -5.96962 3.97975 0 0
60 -4.97468 2.98481 0 0
61 -4.97468 3.97975 0 0
76 -3.97975 2.98481 0 0
77 -3.97975 3.97975 0 0
89 -2.98481 2.98481 0 0
90 -2.98481 3.97975 0 0
100 -1.98987 2.98481 0 0
101 -1.98987 3.97975 0 0
110 -0.994937 3.97975 0 0
119 7.36401e-16 3.97975 0 0
128 0.994937 3.97975 0 0
138 1.98987 2.98481 0 0
139 1.98987 3.97975 0 0
151 2.98481 2.98481 0 0
152 2.98481 3.97975 0 0
167 3.97975 2.98481 0 0
168 3.97975 3.97975 0 0
183 4.97468 2.98481 0 0
184 4.97468 3.97975 0 0
199 5.96962 2.98481 0 0
200 5.96962 3.97975 0 0
215 6.96456 2.98481 0 0
216 6.96456 3.97975 0 0
14 -7.9595 4.97468 0 0
15 -7.9595 5.96962 0 0
30 -6.96456 4.97468 0 0
31 -6.96456 5.96962 0 0
46 -5.96962 4.97468 0 0
47 -5.96962 5.96962 0 0
62 -4.97468 4.97468 0 0
63 -4.97468 5.96962 0 0
78 -3.97975 4.97468 0 0
79 -3.97975 5.96962 0 0
91 -2.98481 4.97468 0 0
92 -2.98481 5.96962 0 0
102 -1.98987 4.97468 0 0
103 -1.98987 5.96962 0 0
111 -0.994937 4.97468 0 0
112 -0.994937 5.96962 0 0
120 7.36401e-16 4.97468 0 0
121 7.36401e-16 5.96962 0 0
129 0.994937 4.97468 0 0
130 0.994937 5.96962 0 0
140 1.98987 4.97468 0 0
141 1.98987 5.96962 0 0
153 2.98481 4.97468 0 0
154 2.98481 5.96962 0 0
169 3.97975 4.97468 0 0
170 3.97975 5.96962 0 0
185 4.97468 4.97468 0 0
186 4.97468 5.96962 0 0
201 5.96962 4.97468 0 0
202 5.96962 5.96962 0 0
217 6.96456 4.97468 0 0
218 6.96456 5.96962 0 0
16 -7.9595 6.96456 0 0
32 -6.96456 6.96456 0 0
48 -5.96962 6.96456 0 0
64 -4.97468 6.96456 0 0
80 -3.97975 6.96456 0 0
93 -2.98481 6.96456 0 0
104 -1.98987 6.96456 0 0
113 -0.994937 6.96456 0 0
122 7.36401e-16 6.96456 0 0
131 0.994937 6.96456 0 0
142 1.98987 6.96456 0 0
155 2.98481 6.96456 0 0
171 3.97975 6.96456 0 0
187 4.97468 6.96456 0 0
203 5.96962 6.96456 0 0
219 6.96456 6.96456 0 0
ITEM: TIMESTEP
500000
ITEM: NUMBER OF ATOMS
219
ITEM: BOX BOUNDS pp pp pp
-8.8438840853035678e+00 8.8438840853035678e+00
-8.8438840853035678e+00 8.8438840853035678e+00
-8.8438840853035678e+00 8.8438840853035678e+00
ITEM: ATOMS id x y vx vy
18 -7.50563 -7.39479 0.100705 0.148653
17 -7.86887 -8.46464 -0.687779 -0.38075
2 -8.61247 -7.73165 -0.189944 -0.417566
34 -6.74529 -8.28185 -0.723729 0.0940123
49 -5.71279 -7.96739 0.222347 -0.800958
50 -6.43129 -7.10255 -0.139105 0.494636
66 -5.39629 -6.82541 0.148978 -0.254041
93 -4.91862 -8.77945 -0.684976 -0.163637
81 -3.56596 -7.31637 -0.0398676 0.162298
65 -4.58801 -7.67013 -0.436682 -0.942294
94 -2.44278 -7.19666 0.233836 0.144551
114 -0.561486 -7.55448 -0.349126 0.316142
123 0.48384 -7.29365 0.838787 -0.0288397
133 1.82658 -7.22558 -0.0415042 -1.19363
145 2.87306 -6.88793 -0.0510087 -0.261096
144 3.65663 -7.67634 -0.63997 -0.0482308
157 4.74919 -7.56694 0.141344 0.162644
143 4.55708 -8.71842 0.343698 0.196477
173 5.61892 -8.37673 0.346315 -0.353841
189 5.8935 -7.28525 0.0206938 -0.314172
205 6.74442 -8.19187 0.416481 0.822801
190 7.11194 -7.13573 -0.0670254 0.308998
3 7.8472 -8.06821 -0.17342 -0.791204
1 8.66734 -8.74634 0.953738 0.049715
4 -8.01083 -5.56654 -0.319283 0.00507538
19 -8.35171 -6.62233 0.842392 0.0349552
20 -7.23807 -6.31508 -0.107339 -0.134368
21 -6.87945 -5.21452 -0.805543 -0.364101
35 -6.10654 -5.93698 0.0282202 -0.0154472
51 -5.07687 -5.71386 0.511842 0.269092
36 -5.85385 -4.88284 -0.0114631 1.1098
67 -4.31249 -6.51809 -0.220702 0.0305094
68 -3.98134 -5.46242 0.407879 0.185397
82 -3.17347 -6.27909 0.416045 -0.263572
105 -1.37971 -6.80712 0.102139 0.53875
83 -2.89917 -5.12083 0.530666 0.203637
95 -2.14314 -5.9696 0.0605911 0.434632
106 -1.10856 -5.73638 0.345818 0.582338
96 -1.84214 -4.86797 0.466845 0.0456757
115 -0.292671 -6.53166 -0.271334 0.688035
116 0.0386694 -5.49942 0.0962135 0.128081
124 0.909909 -6.3529 0.254152 -0.216569
125 1.30334 -5.3218 -0.0686923 -0.420048
134 2.07251 -6.15682 -0.125638 -0.405446
135 2.45986 -5.08372 0.429753 0.431639
158 4.10113 -6.65283 0.655934 0.102174
146 3.25505 -5.91921 -0.0950025 0.700451
159 4.37533 -5.60619 -0.19556 0.527097
174 5.20224 -6.45693 -0.18637 0.457057
175 5.58061 -5.2978 -0.761822 0.124598
191 6.36122 -6.20097 0.0686148 0.133493
176 6.59743 -5.01408 0.0773306 -0.213034
206 8.19723 -6.87685 -0.405728 -0.0661983
208 8.48333 -5.84708 0.578445 -0.210774
207 7.45248 -6.12623 0.391551 -0.258358
192 7.69209 -5.05533 0.648481 -0.282244
5 -7.77536 -4.41969 -0.0665517 -0.090056
22 -7.42611 -3.27588 -0.609889 0.402125
209 8.82596 -4.80616 0.291316 -0.542253
37 -6.66985 -4.11039 -0.182927 0.291552
53 -5.57002 -3.82596 -0.0908096 0.0434248
38 -6.26642 -2.99009 -0.242633 0.30375
52 -4.81636 -4.58865 -0.29216 -0.584297
69 -4.48521 -3.43403 -0.204747 -0.0282209
84 -3.74574 -4.37012 0.652651 -0.24547
85 -3.47043 -3.13435 0.256172 0.199552
97 -2.61736 -4.08161 0.546816 0.739205
98 -1.45037 -3.81539 -0.00259774 -0.606279
99 -2.32456 -3.00492 -0.399759 0.0180377
107 -0.721998 -4.62079 0.470904 -0.313502
108 -0.247452 -3.54344 0.0272197 -0.168882
117 0.59694 -4.39205 0.45427 0.058915
118 0.827516 -3.31569 0.202406 -0.188102
126 1.62746 -4.23649 0.165667 0.0271959
136 2.79098 -4.00615 0.361337 0.166169
127 1.99373 -3.15068 -0.244108 0.339518
160 3.52015 -4.77468 -0.127975 -0.305656
147 3.8481 -3.72059 -0.129601 -0.0515343
161 4.63617 -4.57123 -0.708717 0.151378
148 5.02292 -3.4947 0.0546193 -0.183559
193 5.78996 -4.25754 0.358448 0.291862
177 6.13444 -3.32406 0.413503 0.486794
6 -7.93931 -1.21411 -0.45743 -0.0948119
7 -7.26171 -2.11046 0.101748 -0.517626
54 -5.25904 -2.68377 -0.250439 -0.429209
23 -6.06908 -1.92091 0.0354104 0.603002
39 -4.93156 -1.58986 -0.213956 0.490464
70 -4.17482 -2.28834 0.407856 0.154275
55 -3.69692 -1.26586 -0.450759 0.379645
86 -3.08544 -2.15454 0.251078 -0.831239
87 -2.02475 -1.88513 -0.510977 -0.120716
71 -2.64939 -1.05632 -0.106946 -0.109853
109 -1.10311 -2.69031 -0.0907226 -0.883244
149 2.41689 -1.96688 0.0945111 -0.113168
137 3.09744 -2.88287 -0.685516 1.07641
162 4.13649 -2.68583 -0.529342 -0.051048
179 3.43798 -1.76619 -0.358268 0.599309
195 4.56666 -1.5748 -0.599362 -0.252826
178 5.42528 -2.22488 0.639272 0.804394
194 6.42805 -1.88126 0.1844 0.809603
211 5.64063 -1.08674 -0.0246434 0.157966
9 -7.54022 -0.165582 0.114774 0.236015
8 -6.72172 -1.07067 -0.485595 0.361145
25 -6.5193 0.208633 -0.0401563 0.159524
24 -5.63003 -0.704306 -0.731367 0.218636
41 -5.4117 0.378593 -0.285541 0.5325
40 -4.54361 -0.530337 -1.80618 -0.276601
57 -4.23113 0.587593 -0.32293 -0.935969
56 -3.37178 -0.220264 -1.10879 -0.031148
72 -2.19873 0.0166026 -0.0600421 -0.279243
73 -3.20781 1.06287 -0.00560511 -0.281621
163 2.06451 0.0344702 -0.357809 -0.498025
164 2.75687 -0.894845 0.190214 0.442837
165 3.11093 0.283988 -0.131676 -0.382973
180 3.86125 -0.612127 0.165784 -0.191831
181 4.15304 0.58365 -0.46545 0.18165
196 4.85174 -0.287476 0.16411 0.299887
212 5.99252 0.0407494 -0.661402 0.439359
197 5.27218 0.873024 -0.69715 -0.00474054
10 -7.13528 1.0866 -0.501665 0.4077
11 -7.93416 1.94577 -0.306912 -0.0695277
27 -6.82448 2.1905 0.495331 0.573853
12 -8.76703 2.78258 -0.0717165 0.18204
26 -6.10462 1.38547 1.19839 -0.29872
43 -5.62165 2.41875 -0.29538 -0.124354
42 -4.96938 1.54256 0.0968827 -0.73845
59 -4.5915 2.6501 0.674788 -0.0492665
58 -3.78994 1.899 -0.0810953 0.212412
75 -3.54369 3.00622 0.178878 0.280093
74 -2.7753 2.26256 -0.674375 0.00108534
128 0.681127 2.691 -0.312612 -0.349615
150 2.16132 1.10736 0.299967 -0.353655
138 1.52689 1.96399 0.186031 -0.86583
151 2.64983 2.31308 0.0484688 -0.15097
166 3.38121 1.40646 -0.0878246 -0.24459
167 3.67976 2.49958 -0.225907 -0.120001
182 4.43683 1.63347 0.400196 -0.377528
183 4.71939 2.76329 0.13071 0.457778
213 6.40923 1.09387 0.390122 0.248233
198 5.68774 2.04808 -0.593456 0.132176
214 6.81722 2.29194 -0.230028 -0.250117
210 7.87813 2.45092 -0.128551 -0.0114734
28 -7.63787 2.95479 -0.0775975 -0.181502
29 -8.37304 3.83881 -0.272443 -0.481952
45 -7.28574 4.15532 0.658982 0.0134038
44 -6.52018 3.22995 0.0683116 -0.891597
61 -6.15524 4.41273 -0.0938256 0.352442
60 -5.42565 3.49352 -0.960193 -0.120207
77 -5.10138 4.67799 0.387806 0.352033
76 -4.38281 3.86731 0.417588 -0.0274554
101 -3.31142 4.03679 -0.337505 -0.00468283
89 -3.95428 4.98456 0.553616 0.116667
88 -2.49346 3.26265 0.239286 0.207851
110 -1.121 3.36605 0.617486 0.183294
100 -2.08285 4.23441 0.339286 -0.123587
111 -0.713046 4.5081 0.16362 -0.251321
119 -0.0641692 3.56088 0.423933 -0.190596
120 0.374071 4.70284 0.136021 0.539337
139 1.82442 3.05197 -0.670141 -0.196449
129 1.06909 3.82501 0.425133 -0.0270732
140 2.17687 4.08272 0.536865 -0.0611225
152 2.885 3.33789 -0.515061 0.259323
153 3.39937 4.44864 -0.30769 -0.271172
168 4.10504 3.60291 0.123124 0.675213
169 4.43114 4.70195 -0.155191 -1.15665
199 5.93709 3.11057 -0.225199 -0.377802
184 5.17093 3.94483 -0.256118 0.133844
200 6.2705 4.14345 -0.225417 -0.0787268
215 7.16068 3.32147 0.0579349 -0.207104
13 8.18666 3.59187 0.220616 -0.15082
216 7.38183 4.44436 0.438759 0.188552
14 8.5226 4.65015 0.372867 -0.757071
30 -8.09981 4.95438 -0.459919 0.34427
32 -7.82585 6.07769 -0.320318 -0.141397
46 -6.9221 5.25541 0.304762 -0.523897
31 -6.72354 6.38444 0.131877 -0.235054
62 -5.87635 5.5387 -0.109804 0.115557
63 -5.59711 6.60012 0.602624 -0.0578594
90 -4.70221 5.83708 0.0779013 0.333724
91 -3.55083 6.00036 0.580438 0.378448
78 -4.39598 6.89212 -0.540543 -0.549504
102 -2.8055 5.06768 -0.224803 -0.584785
103 -1.61007 5.33757 -0.20127 0.307019
104 -2.43132 6.0996 0.339683 -0.584464
113 -1.24812 6.40186 -0.0421552 0.263796
112 -0.351864 5.61362 1.17645 -0.379779
121 0.785644 5.85253 -0.250316 0.331829
122 0.0301336 6.6448 -0.554537 1.1431
130 1.44996 4.90829 -0.462772 -0.28564
141 2.63876 5.21524 0.0746817 0.129996
131 1.88794 6.01956 -0.0139168 0.141631
142 2.92572 6.31283 0.524223 0.193818
154 3.743 5.50618 0.80071 0.14565
170 4.83564 5.69197 -0.275966 -0.21914
155 3.93105 6.63153 0.324699 -0.315996
185 5.56247 4.90658 0.0393618 0.677315
201 6.59386 5.27419 -0.256088 -0.234994
186 5.88193 6.12221 -0.170467 0.320536
15 8.77372 5.78441 0.329481 -0.420942
202 6.99016 6.36787 -0.175424 0.129401
217 7.7658 5.5031 0.230768 0.18373
218 8.05837 6.66933 -0.0395404 0.457885
16 -8.51968 6.91692 0.178887 -0.600644
33 -8.26245 8.05867 -0.365827 -0.571969
47 -7.46366 7.19913 1.12828 0.126933
48 -7.08942 8.24456 -0.828401 -0.140422
80 -5.9848 8.52063 0.117319 0.149116
64 -6.35494 7.42672 0.136829 0.13548
79 -5.25311 7.59581 -0.357525 -0.323552
92 -4.15594 8.04769 -0.492619 0.171466
132 3.16283 7.45947 0.347592 0.325169
156 4.22374 7.73893 0.159551 0.362026
171 4.99847 6.87906 0.293199 0.260251
172 5.28914 8.09028 0.596373 1.00011
188 6.38691 8.3602 0.64445 -0.330345
187 6.16222 7.27219 -0.0283814 -0.0314493
204 7.56895 8.55963 -0.627328 -0.150123
203 7.27145 7.51283 0.728448 0.426629
219 8.36786 7.83695 -0.490937 -0.53466
