ITEM: TIMESTEP
0
ITEM: NUMBER OF ATOMS
178
ITEM: BOX BOUNDS pp pp pp
-2.9832867780352597e+01 2.9832867780352597e+01
-2.9832867780352597e+01 2.9832867780352597e+01
-2.9832867780352597e+01 2.9832867780352597e+01
ITEM: ATOMS id x y vx vy
11 -25 -28 0 0
20 -22 -28 0 0
30 -19 -28 0 0
41 -16 -28 0 0
52 -13 -28 0 0
62 -10 -28 0 0
71 -7 -28 0 0
4 -28 -25 0 0
12 -25 -25 0 0
21 -22 -25 0 0
31 -19 -25 0 0
42 -16 -25 0 0
53 -13 -25 0 0
63 -10 -25 0 0
72 -7 -25 0 0
80 -4 -25 0 0
5 -28 -22 0 0
13 -25 -22 0 0
22 -22 -22 0 0
32 -19 -22 0 0
43 -16 -22 0 0
54 -13 -22 0 0
64 -10 -22 0 0
73 -7 -22 0 0
81 -4 -22 0 0
6 -28 -19 0 0
14 -25 -19 0 0
23 -22 -19 0 0
33 -19 -19 0 0
44 -16 -19 0 0
55 -13 -19 0 0
65 -10 -19 0 0
74 -7 -19 0 0
82 -4 -19 0 0
87 -1 -19 0 0
7 -28 -16 0 0
15 -25 -16 0 0
24 -22 -16 0 0
34 -19 -16 0 0
45 -16 -16 0 0
56 -13 -16 0 0
66 -10 -16 0 0
75 -7 -16 0 0
83 -4 -16 0 0
88 -1 -16 0 0
8 -28 -13 0 0
16 -25 -13 0 0
25 -22 -13 0 0
35 -19 -13 0 0
46 -16 -13 0 0
57 -13 -13 0 0
67 -10 -13 0 0
76 -7 -13 0 0
84 -4 -13 0 0
89 -1 -13 0 0
9 -28 -10 0 0
17 -25 -10 0 0
26 -22 -10 0 0
36 -19 -10 0 0
47 -16 -10 0 0
58 -13 -10 0 0
68 -10 -10 0 0
77 -7 -10 0 0
85 -4 -10 0 0
10 -28 -7 0 0
18 -25 -7 0 0
27 -22 -7 0 0
37 -19 -7 0 0
48 -16 -7 0 0
59 -13 -7 0 0
69 -10 -7 0 0
78 -7 -7 0 0
86 -4 -7 0 0
19 -25 -4 0 0
28 -22 -4 0 0
38 -19 -4 0 0
49 -16 -4 0 0
60 -13 -4 0 0
70 -10 -4 0 0
79 -7 -4 0 0
39 -19 -1 0 0
50 -16 -1 0 0
61 -13 -1 0 0
176 -28.6657 13 0 0
177 -28.6657 16 0 0
178 -28.6657 19 0 0
29 -19 28.6657 0 0
40 -16 28.6657 0 0
51 -13 28.6657 0 0
128 13 -28.6657 0 0
139 16 -28.6657 0 0
150 19 -28.6657 0 0
1 28.6657 -19 0 0
2 28.6657 -16 0 0
3 28.6657 -13 0 0
118 13 1 0 0
129 16 1 0 0
140 19 1 0 0
100 7 4 0 0
109 10 4 0 0
119 13 4 0 0
130 16 4 0 0
141 19 4 0 0
151 22 4 0 0
160 25 4 0 0
93 4 7 0 0
101 7 7 0 0
110 10 7 0 0
120 13 7 0 0
131 16 7 0 0
142 19 7 0 0
152 22 7 0 0
161 25 7 0 0
169 28 7 0 0
94 4 10 0 0
102 7 10 0 0
111 10 10 0 0
121 13 10 0 0
132 16 10 0 0
143 19 10 0 0
153 22 10 0 0
162 25 10 0 0
170 28 10 0 0
90 1 13 0 0
95 4 13 0 0
103 7 13 0 0
112 10 13 0 0
122 13 13 0 0
133 16 13 0 0
144 19 13 0 0
154 22 13 0 0
163 25 13 0 0
171 28 13 0 0
91 1 16 0 0
96 4 16 0 0
104 7 16 0 0
113 10 16 0 0
123 13 16 0 0
134 16 16 0 0
145 19 16 0 0
155 22 16 0 0
164 25 16 0 0
172 28 16 0 0
92 1 19 0 0
97 4 19 0 0
105 7 19 0 0
114 10 19 0 0
124 13 19 0 0
135 16 19 0 0
146 19 19 0 0
156 22 19 0 0
165 25 19 0 0
173 28 19 0 0
98 4 22 0 0
106 7 22 0 0
115 10 22 0 0
125 13 22 0 0
136 16 22 0 0
147 19 22 0 0
157 22 22 0 0
166 25 22 0 0
174 28 22 0 0
99 4 25 0 0
107 7 25 0 0
116 10 25 0 0
126 13 25 0 0
137 16 25 0 0
148 19 25 0 0
158 22 25 0 0
167 25 25 0 0
175 28 25 0 0
108 7 28 0 0
117 10 28 0 0
127 13 28 0 0
138 16 28 0 0
149 19 28 0 0
159 22 28 0 0
168 25 28 0 0
ITEM: TIMESTEP
500000
ITEM: NUMBER OF ATOMS
178
ITEM: BOX BOUNDS pp pp pp
-2.9832867780352597e+01 2.9832867780352597e+01
-2.9832867780352597e+01 2.9832867780352597e+01
-2.9832867780352597e+01 2.9832867780352597e+01
ITEM: ATOMS id x y vx vy
31 -18.7354 -20.1397 -0.0830111 -0.424659
40 -18.2999 -21.1344 -0.729975 -0.550399
30 -17.5144 -20.3566 -0.396464 -0.109691
41 -16.393 -20.6895 -0.438296 -0.724891
52 -14.5991 -19.875 -0.169688 -0.147074
5 -20.8362 -19.736 0.758889 0.228636
14 -21.2268 -18.676 -0.0177152 0.349625
12 -20.0448 -18.7791 -0.188052 0.903329
20 -19.8379 -19.9419 -0.0139233 -0.812464
11 -18.9526 -18.9803 1.04901 -0.89363
22 -18.1786 -18.2067 -0.19572 0.153097
4 -19.357 -17.9561 0.278897 -0.19283
32 -17.8439 -19.2807 -0.41712 -0.0794747
29 -16.8026 -19.4881 0.0584171 -0.377362
21 -17.0397 -18.3822 0.174714 -0.0447484
42 -16.0133 -18.5355 -0.462338 -0.126235
51 -15.6998 -19.6385 -0.276118 0.438512
54 -14.9507 -18.7813 0.759861 -0.510006
71 -14.107 -17.945 0.391264 0.168178
53 -13.8805 -19.0024 -0.404891 0.447558
62 -12.7749 -19.3744 -0.377434 0.617792
72 -13.0329 -18.3188 0.0607439 -0.441104
81 -11.932 -18.6933 0.441062 0.560545
7 -21.8637 -16.3274 -0.453606 0.0580523
23 -20.5351 -17.7609 -0.104464 -0.349716
2 -21.6167 -17.4489 0.848471 -0.242312
6 -20.8151 -16.6203 -1.13708 0.971512
1 -19.7657 -16.9406 -0.355128 0.134305
13 -18.5323 -17.1639 0.738063 -0.182167
15 -18.9572 -16.0344 -0.670561 -1.23743
24 -17.7347 -16.2906 0.153093 -0.0564311
43 -16.243 -17.5341 0.514916 -0.241433
33 -17.3703 -17.3709 -0.051659 0.341347
44 -16.5828 -16.4792 0.409785 -0.418832
63 -15.1828 -17.7255 -0.878925 0.572694
64 -14.3803 -16.8822 -0.236262 0.340925
55 -15.4979 -16.6699 0.0103955 0.0556044
80 -13.2733 -17.2601 0.3648 0.85528
65 -12.5392 -16.4774 -0.537896 -0.0514563
74 -12.2239 -17.6097 0.444575 -0.0322232
73 -13.6186 -16.0609 0.00383896 -0.30364
82 -11.1421 -17.9071 0.294861 0.419747
87 -11.3791 -16.7885 0.259058 0.474347
83 -10.3738 -17.0775 0.688306 0.00978695
89 -10.6419 -16.0071 0.480601 -0.652101
88 -9.59053 -16.3094 0.384495 0.154848
8 -21.0009 -15.4439 0.261624 -0.188437
25 -20.2554 -14.7417 0.134241 0.476877
3 -19.983 -15.8876 0.313413 -0.371954
17 -19.1395 -14.9771 -0.649056 0.0667768
35 -18.095 -15.1581 0.542893 -0.250969
26 -18.4371 -14.1014 -0.313372 0.00532099
10 -19.4789 -13.9063 -0.726927 0.926528
27 -17.2432 -14.3154 -0.473212 -0.155184
34 -16.8976 -15.4182 0.238896 1.03967
47 -16.1686 -14.6303 0.523647 -0.0306297
56 -14.6408 -15.827 -0.281194 0.675365
45 -15.8545 -15.6952 -0.063888 -0.377715
46 -15.0382 -14.7678 -0.590633 0.172615
69 -14.1788 -13.9262 -0.866625 0.105749
57 -13.9052 -14.9985 0.0260815 -0.0200316
67 -12.8739 -15.3363 -0.781822 0.167515
77 -11.9592 -14.5723 0.894369 -0.68079
68 -13.1093 -14.2323 -0.365685 0.131542
66 -11.8368 -15.6787 0.670313 0.633487
75 -10.9379 -14.9472 0.471773 0.324502
85 -10.1991 -14.1518 0.0441062 -0.719681
84 -9.83049 -15.2287 0.453646 -0.03484
16 -20.5749 -13.6142 -0.503957 0.362775
9 -19.9169 -12.7887 0.192664 -0.105322
18 -18.8398 -13.0646 0.419333 0.293279
28 -18.113 -12.2639 0.561686 -0.358034
38 -19.213 -12.068 0.627277 0.501384
19 -17.7229 -13.3128 -0.376353 -0.269549
37 -16.8797 -12.5453 -0.319127 -0.134139
36 -16.4891 -13.5397 0.0776389 0.321519
48 -15.3937 -13.7344 0.918357 -0.556994
39 -15.6981 -12.6424 -0.292891 0.0545338
58 -14.6411 -12.83 -0.226356 0.355166
59 -13.7381 -11.9557 0.276521 0.333052
79 -13.4803 -13.151 0.225884 -0.609345
78 -12.3212 -13.4854 -0.771927 -0.211738
70 -12.6576 -12.3051 -0.159472 0.366439
86 -11.1791 -13.6857 -0.753858 -0.597145
76 -11.5421 -12.5934 0.442991 -0.455321
50 -18.4412 -11.1767 -0.568943 0.874611
49 -17.2877 -11.4729 -0.20202 0.143923
60 -16.0827 -11.5714 0.165081 -0.732488
61 -14.8113 -11.5988 -0.166914 -0.525732
120 13.5213 11.3783 -0.157628 0.228662
118 14.7119 11.6907 0.522864 0.434104
119 15.3953 10.7958 -0.703975 0.0542379
130 15.8598 11.8967 0.350726 0.147025
129 16.2422 9.99599 -0.0556101 0.0039416
141 17.3459 10.1848 -0.1459 -0.418907
140 16.5693 11.0326 0.405956 0.326804
142 17.6325 11.2299 0.0910579 -0.21775
103 11.2732 13.9762 0.574212 0.22121
94 11.9841 13.1868 0.51179 -0.612969
109 12.7499 12.2979 0.276559 0.217769
101 13.1239 13.3801 0.0996429 -0.268889
100 13.89 12.5657 -0.466246 0.336157
121 15.0597 12.7042 0.567168 -0.51935
110 14.2859 13.6333 -0.083239 0.0202654
132 15.3996 13.8386 -0.623551 0.361533
143 16.9825 12.071 0.646587 -0.0299246
131 16.1894 12.9466 -0.224347 -0.527578
152 17.2561 13.1942 0.474468 -0.279644
160 18.0968 12.2135 0.417629 -0.698876
151 19.1795 12.5849 -0.00990208 -0.111048
161 18.3867 13.3733 0.639742 -0.073266
170 19.5187 13.6419 -0.0078178 -0.289296
91 10.5963 14.8349 -0.284756 0.595806
95 11.7066 15.1014 -0.685037 0.307041
96 10.898 15.8893 0.00653928 0.156213
93 12.3034 14.2691 -0.657844 0.319212
111 13.5323 14.4154 -0.302137 -0.449948
112 12.8214 15.2864 -0.397604 -0.0292024
102 13.936 15.6631 0.125532 -0.248323
122 14.5755 14.7664 0.39084 0.250356
134 15.7129 14.9375 0.113489 0.53347
123 14.9784 15.775 0.313169 1.0861
133 16.5772 14.0445 0.479394 0.209395
144 16.803 15.1761 -0.0758506 0.26727
153 17.7027 14.2779 -0.117585 -0.0240471
162 17.9582 15.3357 0.344383 -0.72996
169 18.8048 14.422 -0.449263 0.0716705
154 18.9674 15.5526 0.42491 0.0772977
163 19.8103 14.7237 0.070701 -0.337392
171 21.0135 14.8094 -0.506434 -0.563368
176 20.11 15.7813 0.132423 0.752519
172 22.0522 15.142 0.505848 -0.458411
97 10.0667 16.6452 0.459151 -0.730119
92 11.0454 16.9613 -0.589014 -0.663827
105 10.3119 17.7464 0.0627124 0.117438
90 11.9947 16.12 -0.421207 -0.0311424
114 12.256 17.1506 -0.392585 -0.505396
104 13.1432 16.4247 -0.168834 0.267799
106 13.2391 17.4605 1.01529 -0.130261
113 14.2253 16.7332 0.270899 -0.396938
116 15.271 16.9203 -0.649463 -0.0316316
136 15.7166 17.8626 -0.117798 0.669838
124 16.0312 15.9774 -0.132755 -0.0263081
145 17.1833 16.1875 -1.0108 -0.0857609
146 17.5516 17.2794 -0.753141 -0.357477
135 16.4162 17.0441 0.341539 0.73535
155 18.233 16.4353 0.0771443 0.0620379
166 18.6464 17.4237 0.454125 -0.27793
164 19.3538 16.5667 -0.570904 0.477661
175 19.7492 17.5876 0.669301 0.900018
178 21.2806 15.9399 -0.89227 -0.212691
156 20.4665 16.8148 0.376182 -0.215777
173 21.6226 17.0817 0.172347 -0.402344
177 22.356 16.2531 0.295225 0.44942
98 11.4391 17.9454 0.483248 0.585546
99 12.485 18.3487 -0.672498 0.548001
107 13.1814 19.3113 -0.118977 0.244061
115 13.9155 18.3907 0.101755 -0.0149218
108 14.3258 19.596 0.255424 -0.254327
125 14.9481 18.7428 -0.376145 0.281116
137 16.194 18.9701 -0.531004 -0.216551
158 16.8407 18.1806 -0.219705 0.0745255
147 17.2841 19.1539 -0.145532 0.703624
157 17.9612 18.312 0.233569 -0.507669
167 19.0222 18.4149 -0.292126 -0.0481521
168 18.3564 19.341 -0.557218 0.322371
174 19.4063 19.5467 -0.347059 -0.175897
165 20.8758 17.986 0.268529 0.410782
117 13.4344 20.4004 -0.359599 -0.351896
128 15.3455 19.7448 -0.202317 0.872379
126 14.6067 20.5611 0.70904 0.101185
138 15.6844 20.8014 0.795825 -0.31044
127 15.0336 21.7812 -0.301479 -0.762298
150 16.4696 20.0053 0.347387 0.371191
149 16.8621 21.0808 -0.178432 -0.353064
148 17.6465 20.2909 0.146449 -0.914487
159 18.7339 20.4 -0.321573 -0.314764
139 16.2724 22.0615 0.256384 0.00781177
