ITEM: TIMESTEP
0
ITEM: NUMBER OF ATOMS
315
ITEM: BOX BOUNDS pp pp pp
-3.7444361936092534e+00 3.7444361936092534e+00
-3.7444361936092534e+00 3.7444361936092534e+00
-3.7444361936092534e+00 3.7444361936092534e+00
ITEM: ATOMS id x y z vx vy vz
1 -3.36999 -3.36999 -3.36999 0 0 0
2 -3.36999 -3.36999 -2.52749 0 0 0
3 -3.36999 -2.52749 -3.36999 0 0 0
4 -2.52749 -3.36999 -3.36999 0 0 0
5 -2.52749 -2.52749 -2.52749 0 0 0
6 -3.36999 -3.36999 -1.685 0 0 0
7 -3.36999 -3.36999 -0.842498 0 0 0
8 -3.36999 -2.52749 -1.685 0 0 0
9 -2.52749 -3.36999 -1.685 0 0 0
10 -2.52749 -2.52749 -0.842498 0 0 0
21 -3.36999 -1.685 -3.36999 0 0 0
22 -3.36999 -1.685 -2.52749 0 0 0
23 -3.36999 -0.842498 -3.36999 0 0 0
24 -2.52749 -1.685 -3.36999 0 0 0
25 -2.52749 -0.842498 -2.52749 0 0 0
26 -3.36999 -1.685 -1.685 0 0 0
27 -3.36999 -1.685 -0.842498 0 0 0
28 -3.36999 -0.842498 -1.685 0 0 0
29 -2.52749 -1.685 -1.685 0 0 0
30 -2.52749 -0.842498 -0.842498 0 0 0
81 -1.685 -3.36999 -3.36999 0 0 0
82 -1.685 -3.36999 -2.52749 0 0 0
83 -1.685 -2.52749 -3.36999 0 0 0
86 -1.685 -3.36999 -1.685 0 0 0
87 -1.685 -3.36999 -0.842498 0 0 0
88 -1.685 -2.52749 -1.685 0 0 0
101 -1.685 -1.685 -3.36999 0 0 0
102 -1.685 -1.685 -2.52749 0 0 0
103 -1.685 -0.842498 -3.36999 0 0 0
106 -1.685 -1.685 -1.685 0 0 0
107 -1.685 -1.685 -0.842498 0 0 0
108 -1.685 -0.842498 -1.685 0 0 0
84 -0.842498 -3.36999 -3.36999 0 0 0
85 -0.842498 -2.52749 -2.52749 0 0 0
89 -0.842498 -3.36999 -1.685 0 0 0
90 -0.842498 -2.52749 -0.842498 0 0 0
104 -0.842498 -1.685 -3.36999 0 0 0
105 -0.842498 -0.842498 -2.52749 0 0 0
109 -0.842498 -1.685 -1.685 0 0 0
110 -0.842498 -0.842498 -0.842498 0 0 0
161 0 -3.36999 -3.36999 0 0 0
162 0 -3.36999 -2.52749 0 0 0
163 0 -2.52749 -3.36999 0 0 0
164 0.842498 -3.36999 -3.36999 0 0 0
165 0.842498 -2.52749 -2.52749 0 0 0
166 0 -3.36999 -1.685 0 0 0
167 0 -3.36999 -0.842498 0 0 0
168 0 -2.52749 -1.685 0 0 0
169 0.842498 -3.36999 -1.685 0 0 0
170 0.842498 -2.52749 -0.842498 0 0 0
181 0 -1.685 -3.36999 0 0 0
182 0 -1.685 -2.52749 0 0 0
183 0 -0.842498 -3.36999 0 0 0
184 0.842498 -1.685 -3.36999 0 0 0
185 0.842498 -0.842498 -2.52749 0 0 0
186 0 -1.685 -1.685 0 0 0
187 0 -1.685 -0.842498 0 0 0
188 0 -0.842498 -1.685 0 0 0
189 0.842498 -1.685 -1.685 0 0 0
190 0.842498 -0.842498 -0.842498 0 0 0
236 1.685 -3.36999 -3.36999 0 0 0
237 1.685 -3.36999 -2.52749 0 0 0
238 1.685 -2.52749 -3.36999 0 0 0
239 2.52749 -3.36999 -3.36999 0 0 0
240 2.52749 -2.52749 -2.52749 0 0 0
241 1.685 -3.36999 -1.685 0 0 0
242 1.685 -3.36999 -0.842498 0 0 0
243 1.685 -2.52749 -1.685 0 0 0
244 2.52749 -3.36999 -1.685 0 0 0
245 2.52749 -2.52749 -0.842498 0 0 0
256 1.685 -1.685 -3.36999 0 0 0
257 1.685 -1.685 -2.52749 0 0 0
258 1.685 -0.842498 -3.36999 0 0 0
259 2.52749 -1.685 -3.36999 0 0 0
260 2.52749 -0.842498 -2.52749 0 0 0
261 1.685 -1.685 -1.685 0 0 0
262 1.685 -1.685 -0.842498 0 0 0
263 1.685 -0.842498 -1.685 0 0 0
264 2.52749 -1.685 -1.685 0 0 0
265 2.52749 -0.842498 -0.842498 0 0 0
11 -3.36999 -3.36999 0 0 0 0
12 -3.36999 -3.36999 0.842498 0 0 0
13 -3.36999 -2.52749 0 0 0 0
14 -2.52749 -3.36999 0 0 0 0
15 -2.52749 -2.52749 0.842498 0 0 0
16 -3.36999 -3.36999 1.685 0 0 0
17 -3.36999 -3.36999 2.52749 0 0 0
18 -3.36999 -2.52749 1.685 0 0 0
19 -2.52749 -3.36999 1.685 0 0 0
20 -2.52749 -2.52749 2.52749 0 0 0
31 -3.36999 -1.685 0 0 0 0
32 -3.36999 -1.685 0.842498 0 0 0
33 -3.36999 -0.842498 0 0 0 0
34 -2.52749 -1.685 0 0 0 0
35 -2.52749 -0.842498 0.842498 0 0 0
36 -3.36999 -1.685 1.685 0 0 0
37 -3.36999 -1.685 2.52749 0 0 0
38 -3.36999 -0.842498 1.685 0 0 0
39 -2.52749 -1.685 1.685 0 0 0
40 -2.52749 -0.842498 2.52749 0 0 0
91 -1.685 -3.36999 0 0 0 0
92 -1.685 -3.36999 0.842498 0 0 0
93 -1.685 -2.52749 0 0 0 0
96 -1.685 -3.36999 1.685 0 0 0
97 -1.685 -3.36999 2.52749 0 0 0
98 -1.685 -2.52749 1.685 0 0 0
111 -1.685 -1.685 0 0 0 0
112 -1.685 -1.685 0.842498 0 0 0
113 -1.685 -0.842498 0 0 0 0
116 -1.685 -1.685 1.685 0 0 0
117 -1.685 -1.685 2.52749 0 0 0
118 -1.685 -0.842498 1.685 0 0 0
94 -0.842498 -3.36999 0 0 0 0
95 -0.842498 -2.52749 0.842498 0 0 0
99 -0.842498 -3.36999 1.685 0 0 0
100 -0.842498 -2.52749 2.52749 0 0 0
114 -0.842498 -1.685 0 0 0 0
115 -0.842498 -0.842498 0.842498 0 0 0
119 -0.842498 -1.685 1.685 0 0 0
120 -0.842498 -0.842498 2.52749 0 0 0
171 0 -3.36999 0 0 0 0
172 0 -3.36999 0.842498 0 0 0
173 0 -2.52749 0 0 0 0
174 0.842498 -3.36999 0 0 0 0
175 0.842498 -2.52749 0.842498 0 0 0
176 0 -3.36999 1.685 0 0 0
177 0 -3.36999 2.52749 0 0 0
178 0 -2.52749 1.685 0 0 0
179 0.842498 -3.36999 1.685 0 0 0
180 0.842498 -2.52749 2.52749 0 0 0
191 0 -1.685 0 0 0 0
192 0 -1.685 0.842498 0 0 0
193 0 -0.842498 0 0 0 0
194 0.842498 -1.685 0 0 0 0
195 0.842498 -0.842498 0.842498 0 0 0
196 0 -1.685 1.685 0 0 0
197 0 -1.685 2.52749 0 0 0
198 0 -0.842498 1.685 0 0 0
199 0.842498 -1.685 1.685 0 0 0
200 0.842498 -0.842498 2.52749 0 0 0
246 1.685 -3.36999 0 0 0 0
247 1.685 -3.36999 0.842498 0 0 0
248 1.685 -2.52749 0 0 0 0
249 2.52749 -3.36999 0 0 0 0
250 2.52749 -2.52749 0.842498 0 0 0
251 1.685 -3.36999 1.685 0 0 0
252 1.685 -3.36999 2.52749 0 0 0
253 1.685 -2.52749 1.685 0 0 0
254 2.52749 -3.36999 1.685 0 0 0
255 2.52749 -2.52749 2.52749 0 0 0
266 1.685 -1.685 0 0 0 0
267 1.685 -1.685 0.842498 0 0 0
268 1.685 -0.842498 0 0 0 0
269 2.52749 -1.685 0 0 0 0
270 2.52749 -0.842498 0.842498 0 0 0
271 1.685 -1.685 1.685 0 0 0
272 1.685 -1.685 2.52749 0 0 0
273 1.685 -0.842498 1.685 0 0 0
274 2.52749 -1.685 1.685 0 0 0
275 2.52749 -0.842498 2.52749 0 0 0
41 -3.36999 0 -3.36999 0 0 0
42 -3.36999 0 -2.52749 0 0 0
43 -3.36999 0.842498 -3.36999 0 0 0
44 -2.52749 0 -3.36999 0 0 0
45 -2.52749 0.842498 -2.52749 0 0 0
46 -3.36999 0 -1.685 0 0 0
47 -3.36999 0 -0.842498 0 0 0
48 -3.36999 0.842498 -1.685 0 0 0
49 -2.52749 0 -1.685 0 0 0
50 -2.52749 0.842498 -0.842498 0 0 0
61 -3.36999 1.685 -3.36999 0 0 0
62 -3.36999 1.685 -2.52749 0 0 0
63 -3.36999 2.52749 -3.36999 0 0 0
64 -2.52749 1.685 -3.36999 0 0 0
65 -2.52749 2.52749 -2.52749 0 0 0
66 -3.36999 1.685 -1.685 0 0 0
67 -3.36999 1.685 -0.842498 0 0 0
68 -3.36999 2.52749 -1.685 0 0 0
69 -2.52749 1.685 -1.685 0 0 0
70 -2.52749 2.52749 -0.842498 0 0 0
121 -1.685 0 -3.36999 0 0 0
122 -1.685 0 -2.52749 0 0 0
123 -1.685 0.842498 -3.36999 0 0 0
126 -1.685 0 -1.685 0 0 0
127 -1.685 0 -0.842498 0 0 0
128 -1.685 0.842498 -1.685 0 0 0
141 -1.685 1.685 -3.36999 0 0 0
142 -1.685 1.685 -2.52749 0 0 0
143 -1.685 2.52749 -3.36999 0 0 0
146 -1.685 1.685 -1.685 0 0 0
147 -1.685 1.685 -0.842498 0 0 0
148 -1.685 2.52749 -1.685 0 0 0
124 -0.842498 0 -3.36999 0 0 0
125 -0.842498 0.842498 -2.52749 0 0 0
129 -0.842498 0 -1.685 0 0 0
130 -0.842498 0.842498 -0.842498 0 0 0
144 -0.842498 1.685 -3.36999 0 0 0
145 -0.842498 2.52749 -2.52749 0 0 0
149 -0.842498 1.685 -1.685 0 0 0
150 -0.842498 2.52749 -0.842498 0 0 0
201 0 0 -3.36999 0 0 0
202 0 0 -2.52749 0 0 0
203 0 0.842498 -3.36999 0 0 0
204 0.842498 0 -3.36999 0 0 0
205 0.842498 0.842498 -2.52749 0 0 0
206 0 0 -1.685 0 0 0
207 0 0 -0.842498 0 0 0
208 0 0.842498 -1.685 0 0 0
209 0.842498 0 -1.685 0 0 0
210 0.842498 0.842498 -0.842498 0 0 0
216 0 1.685 -3.36999 0 0 0
217 0 1.685 -2.52749 0 0 0
218 0 2.52749 -3.36999 0 0 0
219 0.842498 1.685 -3.36999 0 0 0
220 0.842498 2.52749 -2.52749 0 0 0
221 0 1.685 -1.685 0 0 0
222 0 1.685 -0.842498 0 0 0
223 0 2.52749 -1.685 0 0 0
224 0.842498 1.685 -1.685 0 0 0
225 0.842498 2.52749 -0.842498 0 0 0
276 1.685 0 -3.36999 0 0 0
277 1.685 0 -2.52749 0 0 0
278 1.685 0.842498 -3.36999 0 0 0
279 2.52749 0 -3.36999 0 0 0
280 2.52749 0.842498 -2.52749 0 0 0
281 1.685 0 -1.685 0 0 0
282 1.685 0 -0.842498 0 0 0
283 1.685 0.842498 -1.685 0 0 0
284 2.52749 0 -1.685 0 0 0
285 2.52749 0.842498 -0.842498 0 0 0
296 1.685 1.685 -3.36999 0 0 0
297 1.685 1.685 -2.52749 0 0 0
298 1.685 2.52749 -3.36999 0 0 0
299 2.52749 1.685 -3.36999 0 0 0
300 2.52749 2.52749 -2.52749 0 0 0
301 1.685 1.685 -1.685 0 0 0
302 1.685 1.685 -0.842498 0 0 0
303 1.685 2.52749 -1.685 0 0 0
304 2.52749 1.685 -1.685 0 0 0
305 2.52749 2.52749 -0.842498 0 0 0
51 -3.36999 0 0 0 0 0
52 -3.36999 0 0.842498 0 0 0
53 -3.36999 0.842498 0 0 0 0
54 -2.52749 0 0 0 0 0
55 -2.52749 0.842498 0.842498 0 0 0
56 -3.36999 0 1.685 0 0 0
57 -3.36999 0 2.52749 0 0 0
58 -3.36999 0.842498 1.685 0 0 0
59 -2.52749 0 1.685 0 0 0
60 -2.52749 0.842498 2.52749 0 0 0
71 -3.36999 1.685 0 0 0 0
72 -3.36999 1.685 0.842498 0 0 0
73 -3.36999 2.52749 0 0 0 0
74 -2.52749 1.685 0 0 0 0
75 -2.52749 2.52749 0.842498 0 0 0
76 -3.36999 1.685 1.685 0 0 0
77 -3.36999 1.685 2.52749 0 0 0
78 -3.36999 2.52749 1.685 0 0 0
79 -2.52749 1.685 1.685 0 0 0
80 -2.52749 2.52749 2.52749 0 0 0
131 -1.685 0 0 0 0 0
132 -1.685 0 0.842498 0 0 0
133 -1.685 0.842498 0 0 0 0
136 -1.685 0 1.685 0 0 0
137 -1.685 0 2.52749 0 0 0
138 -1.685 0.842498 1.685 0 0 0
151 -1.685 1.685 0 0 0 0
152 -1.685 1.685 0.842498 0 0 0
153 -1.685 2.52749 0 0 0 0
156 -1.685 1.685 1.685 0 0 0
157 -1.685 1.685 2.52749 0 0 0
158 -1.685 2.52749 1.685 0 0 0
134 -0.842498 0 0 0 0 0
135 -0.842498 0.842498 0.842498 0 0 0
139 -0.842498 0 1.685 0 0 0
140 -0.842498 0.842498 2.52749 0 0 0
154 -0.842498 1.685 0 0 0 0
155 -0.842498 2.52749 0.842498 0 0 0
159 -0.842498 1.685 1.685 0 0 0
160 -0.842498 2.52749 2.52749 0 0 0
211 0 0 1.685 0 0 0
212 0 0 2.52749 0 0 0
213 0 0.842498 1.685 0 0 0
214 0.842498 0 1.685 0 0 0
215 0.842498 0.842498 2.52749 0 0 0
226 0 1.685 0 0 0 0
227 0 1.685 0.842498 0 0 0
228 0 2.52749 0 0 0 0
229 0.842498 1.685 0 0 0 0
230 0.842498 2.52749 0.842498 0 0 0
231 0 1.685 1.685 0 0 0
232 0 1.685 2.52749 0 0 0
233 0 2.52749 1.685 0 0 0
234 0.842498 1.685 1.685 0 0 0
235 0.842498 2.52749 2.52749 0 0 0
286 1.685 0 0 0 0 0
287 1.685 0 0.842498 0 0 0
288 1.685 0.842498 0 0 0 0
289 2.52749 0 0 0 0 0
290 2.52749 0.842498 0.842498 0 0 0
291 1.685 0 1.685 0 0 0
292 1.685 0 2.52749 0 0 0
293 1.685 0.842498 1.685 0 0 0
294 2.52749 0 1.685 0 0 0
295 2.52749 0.842498 2.52749 0 0 0
306 1.685 1.685 0 0 0 0
307 1.685 1.685 0.842498 0 0 0
308 1.685 2.52749 0 0 0 0
309 2.52749 1.685 0 0 0 0
310 2.52749 2.52749 0.842498 0 0 0
311 1.685 1.685 1.685 0 0 0
312 1.685 1.685 2.52749 0 0 0
313 1.685 2.52749 1.685 0 0 0
314 2.52749 1.685 1.685 0 0 0
315 2.52749 2.52749 2.52749 0 0 0
ITEM: TIMESTEP
100000
ITEM: NUMBER OF ATOMS
315
ITEM: BOX BOUNDS pp pp pp
-3.7444361936092534e+00 3.7444361936092534e+00
-3.7444361936092534e+00 3.7444361936092534e+00
-3.7444361936092534e+00 3.7444361936092534e+00
ITEM: ATOMS id x y z vx vy vz
131 -2.08571 -0.686454 -0.267357 -0.532322 0.108988 1.0004
5 -1.98579 -1.79199 -1.96539 -0.316382 0.689125 -0.242545
108 -2.70673 -1.26699 -0.987272 0.212645 -0.751867 0.54648
13 -2.84807 -2.46107 -1.10159 0.570433 0.108684 1.20124
206 -1.69878 -2.68329 -2.90989 -0.829826 -0.427094 -0.417847
25 -2.83119 -2.78536 -3.25086 -0.639159 -0.617117 0.163031
44 -1.396 -0.101419 -2.70158 0.164136 -0.306329 0.0708732
87 -2.48382 -2.78341 -2.03167 -0.700689 0.053896 -1.20506
62 -3.57436 -3.58489 -3.09626 0.164897 -1.9556 0.1633
28 -2.36456 -1.67957 -3.122 0.375816 0.173306 -0.146679
107 -1.77412 -2.17312 -0.891445 0.303795 -0.332052 0.349018
245 -3.10411 -1.93298 -2.32377 0.116925 0.0832461 0.138828
106 -2.21622 -3.58103 -3.38698 -0.301531 -0.83399 -0.120809
148 -1.47829 -3.03691 -1.62724 -0.259602 -0.337806 0.226061
260 -2.98089 -0.205553 -1.25568 -1.02846 0.161906 0.419185
43 -2.39293 -0.656499 -2.63776 0.0494789 0.648541 0.850043
126 -2.03989 -0.383072 -3.58573 0.431465 0.634857 1.16369
42 -3.71973 -1.14738 -3.01678 1.72475 -0.387444 -0.520418
191 -2.28123 -2.92731 -0.20445 0.254111 -0.521617 0.283209
127 -3.45449 -1.98383 -0.299183 -0.653049 -0.505236 -0.594985
130 -3.24584 -0.934102 -2.03031 0.293452 0.184683 -0.284373
116 -3.34836 -3.13626 -0.174347 -0.0209401 -1.02507 0.267353
26 -3.35729 -0.782787 -0.292037 -0.526646 -0.938867 -0.440795
54 -1.44594 -0.729896 -1.20414 0.178066 -0.791316 0.458951
14 -3.24523 -3.40564 -1.22492 0.372369 0.265209 0.945563
94 -2.22901 -3.51193 -1.07385 -0.785037 -1.0107 0.753557
58 -3.61203 -0.0681756 -3.46362 -1.13424 -0.61042 -0.282842
70 -1.91043 -3.72418 -2.36728 0.549167 0.663865 -0.478437
181 -0.824489 -3.53911 -2.29325 -0.143059 0.685609 0.401598
264 -3.6388 -1.56836 -1.29676 0.852658 0.114011 -0.0790014
27 -0.97684 -2.09381 -3.53309 0.904947 0.544413 1.03731
1 -3.2648 -1.97336 -3.66201 0.184233 -0.202576 -0.337503
129 -1.20904 -1.26783 -2.85114 -1.65209 0.708815 -1.55756
170 0.471561 -2.91949 -0.341781 -0.444275 -0.579977 0.372691
168 0.123446 -2.91983 -1.92407 0.352457 -0.166048 0.037282
187 -0.988965 -2.0987 -2.04382 -0.191106 0.433572 -0.00944742
163 0.128939 -3.34608 -3.02598 -0.861751 -0.0753671 -0.49161
111 -1.05866 -3.07684 -0.652218 0.380726 0.358022 -0.860133
257 -0.0910811 -2.32979 -3.00065 -0.0862154 -0.743696 -0.618227
263 1.04652 -2.0912 -2.50964 -0.456823 0.316449 0.444993
194 0.992033 -3.57902 -1.19109 -0.299709 0.435509 -0.242678
169 1.02863 -3.6376 -2.28417 0.972296 -0.0276065 0.481755
109 -0.98326 -3.6049 -3.39134 -1.36702 0.216912 -1.05705
10 3.48804 -3.20925 -2.01016 1.08353 0.900962 1.47869
2 2.81724 -3.47294 -2.78768 -0.144909 -0.801027 -0.703398
256 2.67111 -1.58857 -3.07114 -0.741905 0.805844 -0.801132
273 2.80915 -0.604653 -3.45186 -0.298962 0.0115657 -0.212753
265 3.47217 -0.563339 -1.29885 -0.114804 -0.128188 -0.197841
6 2.67995 -2.58613 -3.50962 0.625704 1.7367 -0.111944
244 1.94555 -3.40855 -1.94742 -0.0766761 -0.457896 0.923954
286 1.51413 -2.41963 -1.31287 1.07644 -0.193391 -0.313111
8 3.08495 -3.23518 -0.332162 -1.24354 1.06155 -0.820831
237 2.25547 -2.49185 -2.4956 0.191919 -0.330332 -0.527626
284 3.04245 -0.726235 -0.297534 0.349993 -0.315053 0.959869
236 3.48578 -2.53696 -2.80386 -0.197652 0.0705021 -0.679056
240 3.26899 -0.392701 -2.34073 -0.0280375 0.459549 0.127741
34 3.5961 -2.61397 -1.13119 -0.0485875 -0.0956886 -0.237334
164 1.57545 -3.08286 -3.0594 -0.372359 0.209741 -0.650261
238 1.87259 -1.96553 -3.59277 -0.775956 -0.846776 0.076246
270 2.95972 -1.90155 -0.382807 0.0446356 0.171445 -0.120145
239 3.32165 -1.744 -2.18644 -0.668515 1.28021 -0.600763
243 2.61049 -2.65873 -1.37358 0.283216 -0.237744 -0.502011
249 2.02596 -3.36052 -0.71312 -0.382444 0.533445 0.122951
166 1.02619 -3.71678 -3.66812 0.433428 0.63408 -0.435464
261 0.607508 -2.66919 -3.72576 0.698083 0.217457 0.0594234
20 -2.98195 -2.36645 0.657185 0.42732 -0.47737 -0.389646
35 -2.8821 -1.30312 0.711472 -0.715961 0.718843 0.440686
39 -2.49654 -0.719199 1.73457 0.176566 0.0506229 -0.243112
40 -3.36139 -0.530758 2.66385 1.79595 0.920469 -0.654188
98 -2.8767 -1.85733 1.63488 -0.81491 0.304211 0.249491
101 -2.18116 -2.34541 2.20412 0.644838 0.251315 -0.0163555
32 -2.67065 -3.38791 1.88579 -0.388901 0.168405 0.556917
120 -2.60969 -1.43 2.61653 -0.121242 -0.77395 -1.13638
114 -1.87761 -1.9006 1.19839 1.0175 -0.808692 0.488474
137 -2.06607 -0.560686 2.71001 0.0024949 -1.48175 -0.347376
24 -3.37515 -2.46533 2.65268 -1.14408 0.196845 0.0874712
59 -2.64088 -0.245536 0.491481 0.0375863 -0.131467 -0.375988
266 -3.10098 -3.4952 0.835004 0.150003 -0.180238 -0.520673
21 3.73289 -2.89689 3.61081 0.870802 -0.357728 -0.573022
104 -1.59784 -2.99056 3.42636 -0.178255 0.329855 0.123863
177 -1.61175 -1.42909 2.15983 0.0103645 -0.416629 -0.15465
92 -2.10725 -2.93295 0.847114 0.731536 -0.0174104 0.528106
16 -3.57141 -3.46777 2.58535 0.0425221 0.466838 -0.700417
117 -1.64021 -1.36548 3.47781 -0.337735 0.00312348 -0.738315
113 -1.82947 -0.918801 0.85009 0.854196 -1.70888 -0.486749
100 -1.38045 -0.392466 1.78026 -0.577155 -0.0258393 1.22278
63 -2.7108 -3.1412 3.22989 1.33439 0.517575 0.0185016
119 -1.60667 -3.04515 1.80244 -0.704243 0.345996 0.45065
103 -2.25955 -2.21494 3.27782 0.538782 -0.545195 0.707796
33 -3.64631 -0.821181 1.55079 0.500154 -1.21701 -0.555131
267 3.07428 -3.66649 1.91551 0.47723 -0.724535 -0.852889
22 -2.86905 -0.963725 3.63894 -0.018537 0.302478 -0.526184
88 -1.21856 -2.53751 0.382588 -0.074591 -0.259532 -0.608209
190 0.0317226 -1.67163 3.56862 0.414267 0.474554 -0.175841
102 -1.06093 -2.14109 2.89246 0.482897 -0.076526 -0.814443
118 -0.859734 -1.20198 1.294 -0.947547 0.0645046 0.346183
97 -1.25213 -3.57253 0.949321 -0.64803 -0.644771 1.03962
182 0.392219 -3.4895 2.81972 -0.144454 0.870384 0.0747703
95 0.381911 -2.11125 1.45075 0.201519 -0.765677 -1.0228
272 0.165913 -1.18972 2.36953 -0.048203 -1.39363 0.151412
196 0.231318 -2.36648 2.68253 0.463199 0.745585 0.683261
172 -0.517078 -1.94973 1.88619 0.0047791 -0.837276 -0.917747
233 0.403085 -3.27436 0.73415 -0.450334 -1.85911 0.759999
176 0.3818 -3.05419 1.81851 0.578223 0.141651 0.585308
258 1.376 -1.62948 2.01931 1.23512 0.758088 0.214329
160 -0.498751 -3.03765 2.3885 -0.0993123 -0.0892961 0.744479
183 -0.306069 -0.36145 1.75864 -0.121883 -0.683979 0.133539
173 -0.453449 -2.87534 1.28815 -0.894131 -0.65452 0.61726
188 -0.77288 -1.09862 2.85728 -0.85311 0.987524 -0.432551
186 -0.394109 -2.93165 3.53857 0.48067 -0.67925 1.06933
184 1.01407 -1.72204 3.10203 0.548226 -0.570676 -0.721629
185 0.15803 -0.596426 3.39038 -0.853479 0.0667246 1.00143
195 0.863326 -0.633431 1.64457 0.532857 -0.491488 0.308342
262 2.18088 -2.59912 0.0467129 -0.000919622 -0.689704 0.066991
199 1.21142 -2.70496 2.39341 -0.456083 0.554397 -1.21223
115 -0.103628 -2.24178 0.425744 -0.120409 -0.109134 0.29025
198 -0.929896 -0.356539 0.479009 -0.977616 0.165198 0.880904
90 -0.534094 -3.57874 0.236994 -0.380216 -0.545353 -0.388865
189 -1.13867 -1.46592 0.0185146 -0.730183 0.641801 -0.356117
112 -0.919522 -0.0328826 2.64288 0.141964 0.0992741 0.49971
193 1.23687 -2.45532 0.883147 0.272316 0.537287 0.00955063
157 -1.0733 -0.39738 3.6398 0.131077 -0.630002 -0.132359
253 2.47533 -0.0791196 3.10694 0.15546 0.680345 0.196695
175 1.16594 -0.607482 2.70466 -0.362851 -0.179061 -0.195994
259 2.12816 -2.09208 2.68283 1.40044 -0.0200043 0.00667598
268 2.60441 -1.4264 1.89738 1.36582 0.0561654 -0.820622
192 1.48484 -3.34284 0.372473 -0.110683 -0.271905 -0.188593
17 3.23196 -2.1754 3.14244 -0.334404 -1.18622 0.0403651
251 1.49207 -3.22897 1.48451 -0.867187 -1.17016 -0.0969165
37 3.67691 -1.53072 2.36971 -1.05345 -0.868049 0.307064
255 2.07728 -3.24183 2.38804 -1.15707 0.437275 0.910458
3 1.64893 -2.86187 3.34054 -0.151964 -0.527907 -0.381346
57 3.62718 -1.90856 1.34779 0.783358 1.16452 -0.603286
275 2.46223 -1.23921 3.14733 -0.0645136 0.162447 0.633915
250 -3.6807 -2.91864 1.57199 0.352832 0.875246 0.0856049
214 3.57483 -1.05378 3.43208 0.465689 -1.41766 0.0224828
287 1.97382 -0.483627 2.02197 0.21929 -1.28493 -1.05352
271 2.46635 -1.84207 0.751521 -0.398732 0.149552 0.711408
36 3.02368 -0.515289 2.34377 1.44407 0.521576 0.0741567
38 3.43026 -2.51008 0.465502 -0.0599928 1.20109 1.15347
254 2.96551 -2.44509 2.14468 -0.474861 0.600465 -0.289973
269 3.56568 -0.305011 0.599804 0.610578 -1.30497 0.698424
18 2.8217 -3.11035 3.12086 -0.842696 0.080401 -0.715448
292 1.5984 -1.23235 1.08649 0.174036 0.371062 -0.751973
31 3.5089 -1.43252 0.475314 0.737151 0.399183 -0.477402
51 2.70875 -0.498612 1.33104 0.7831 -0.646933 0.39831
15 3.37665 -3.66393 0.629289 -0.884129 0.0880959 0.205761
252 2.0891 -2.31872 1.54922 0.236945 -0.649478 -0.622778
274 2.46266 -3.22301 0.893831 0.432349 -0.0256497 -0.985032
29 -2.21564 -1.8931 0.0127132 0.276891 0.298765 0.467337
277 1.51184 -0.863231 3.69098 1.32745 0.409299 -0.0889434
50 -2.46677 0.530076 -0.560064 0.0184303 0.662996 -0.668707
65 -2.08796 2.99243 -1.74781 0.15305 -0.538642 -0.452198
9 -2.96154 3.02215 -1.18109 -0.844311 0.07136 -0.790804
146 -3.22103 2.30675 -1.99573 -0.519391 -0.196019 0.309416
123 -2.60211 1.56182 -2.45307 0.654491 -0.27362 -0.481344
142 -2.51036 2.99044 -2.84232 -0.686306 0.17416 -0.246902
145 -2.99274 3.67184 -2.11008 -0.0193507 -0.0673416 0.553256
47 -2.42328 1.94509 -1.23487 0.715166 -1.0081 0.350184
23 -2.39985 0.500896 -2.91783 -0.243584 0.176932 -0.230352
153 -1.99616 2.87634 -0.742576 0.373095 0.240912 0.470714
158 -1.70334 1.05393 -1.1869 0.28046 0.536272 -0.812322
45 -3.23764 2.15294 -3.11901 -0.616734 0.397532 -0.807501
125 -2.00878 2.09425 -3.09155 0.574614 0.051191 0.210231
49 -2.94957 0.98405 -1.45095 -0.0621447 0.0426415 -0.486246
41 3.62909 1.37303 -2.2242 -0.970478 -0.281936 0.286703
68 -2.73969 2.42379 -0.154424 0.397644 -0.0775466 -0.895123
202 -2.20459 0.230998 -1.85222 0.988721 -0.570801 -0.61094
280 3.54021 2.99076 -2.70207 0.049058 1.87385 -0.198947
74 -3.25253 1.30147 -0.428377 -0.65276 -0.153388 -0.198776
215 -3.31659 1.04324 -3.28848 -1.20365 -0.782177 0.748663
207 -3.69342 1.94377 -1.1171 0.303088 1.70998 -0.377619
151 -2.68617 3.49478 -0.222332 0.0184991 1.22147 0.759469
144 -2.11323 1.52671 -0.267089 -0.154537 0.091872 -0.162244
285 3.71256 0.199322 -0.498513 -0.257519 0.408924 -0.78114
86 -1.72564 1.98285 -1.94363 -0.167211 -0.433384 -0.161781
82 -1.41238 3.018 -2.91239 -0.514753 1.07969 -0.0271051
204 -3.31774 0.395517 -2.42045 -0.51809 -0.0867059 0.631108
105 -1.35049 0.715667 -3.46336 0.84687 1.23092 -0.406113
69 -1.24599 2.07938 -0.893846 -1.06119 -0.489647 0.410111
93 -1.62103 3.71454 -0.194319 -1.03909 -0.0292065 0.879099
91 -1.24534 3.5303 -1.25881 -0.560941 0.698515 0.119053
208 -1.64098 1.03076 -2.4429 -0.0729282 0.511636 -1.26497
301 2.67382 3.37284 -0.213273 -1.0016 0.706277 0.540499
226 -0.727393 1.58916 -1.83566 -0.519212 -0.646204 0.172007
150 -0.906161 2.79857 -1.92952 0.85004 -0.433135 0.127592
303 -0.376871 3.12965 -2.8482 0.106498 1.18132 -0.412086
225 0.0540169 3.39668 -1.92767 -0.102983 0.369049 0.165817
205 -0.882674 2.0645 -2.76176 0.558935 -0.102417 -0.100455
171 -0.841672 2.98369 -0.420911 -0.597266 0.7237 -0.118722
224 0.0766709 2.36714 -3.40841 0.47338 0.0616158 0.101519
297 -0.190169 2.57899 -1.25136 -0.363245 0.184674 0.435468
167 0.215997 3.12025 -0.0460903 0.301461 0.0517318 0.0872857
283 0.156083 2.29899 -2.25801 -0.337062 1.26301 -0.597709
221 0.70134 3.11768 -2.91679 -0.0577453 1.65991 1.14353
279 0.788518 2.84459 -0.906922 0.732269 -0.114441 0.236607
298 2.87142 3.69861 -1.2246 -1.39313 0.363063 -0.617693
296 1.18969 2.06159 -3.35935 0.72116 0.498765 0.393741
220 1.21167 2.79214 -2.05183 0.350771 0.143509 0.227737
122 -2.30329 1.20981 -3.64966 0.550878 -0.296372 -0.124417
223 -0.0112105 3.72048 -0.875102 -0.367497 0.423147 0.450965
222 -0.187341 2.06509 -0.117382 -1.1703 -0.734362 0.849119
300 1.84235 3.13427 -1.16613 -0.410615 0.104274 -0.229274
149 -0.577065 1.558 -3.69539 0.006132 0.571047 -0.617369
312 1.97399 2.28372 -2.62549 -0.0870639 -0.652061 -0.331692
307 3.28167 1.76367 -3.22173 0.153037 0.599049 0.325965
46 2.78927 1.41429 -1.35661 -0.682931 -0.139194 -0.742166
309 2.68083 0.418553 -0.737734 0.475671 0.11131 -0.384284
293 3.00722 0.599525 -3.34725 1.05927 0.959434 0.328246
276 2.6417 2.80464 -3.33241 0.38276 0.380312 -0.0622069
232 2.19461 1.75376 -3.67948 1.10027 -0.128253 0.13174
305 3.69038 3.21055 -0.483815 -0.350866 0.466711 0.254024
48 2.49417 3.22445 -2.10345 0.106625 -0.0644613 0.650998
304 3.41633 0.503807 -1.61924 1.22743 0.183457 1.03597
67 3.113 1.45112 -0.31822 0.19198 0.195552 -0.928007
248 1.53316 3.20441 -0.112755 0.399535 0.620229 -0.243041
299 2.94477 2.64077 -1.0442 -0.298351 0.974098 0.070844
7 3.65513 3.19151 -1.6847 -0.552886 0.274745 0.101222
281 2.50055 1.13174 -2.62191 -1.0133 0.532852 -0.344191
216 1.76978 3.30494 -2.88713 0.890133 -0.116714 -0.68394
60 3.05053 2.25491 -2.19786 -0.618505 0.111373 -0.0102296
288 2.02792 2.17045 -0.525711 -0.024855 -0.527334 0.43259
242 0.834745 2.19134 -0.00871756 0.302162 -1.19931 0.59639
132 -1.62714 0.287627 -0.0385801 -0.109301 0.354555 -0.990893
235 2.22286 3.72931 -3.73656 0.482044 0.631115 0.403094
55 -3.40668 1.89818 0.468119 0.0929384 -0.0686302 -0.150336
75 -2.18608 3.29568 0.64062 -0.320928 -1.04335 0.67109
77 -2.6126 2.17923 3.50634 -0.0169198 0.944025 -0.289469
78 -1.46433 2.42403 1.37663 -0.256143 -1.56773 -1.17595
81 -3.2724 2.16022 2.41262 0.437549 -0.820683 -0.20205
138 -3.39656 1.1536 2.82119 -0.598278 0.201931 0.611793
152 -3.3611 2.97398 0.566247 0.124326 0.613549 -0.375079
140 -2.82164 1.39141 1.75622 0.295129 0.330052 0.407567
80 -2.74054 2.65621 1.58473 0.297993 -0.335273 -0.152848
64 -2.17637 2.29976 2.42301 0.956547 -0.471775 0.633975
56 -2.84749 0.426902 3.39181 0.238618 -0.27864 -0.467794
133 -2.6243 0.868125 0.42798 -0.114754 -0.71808 0.540099
11 -3.44499 3.41267 1.63783 0.112295 -0.0537415 0.311325
136 -1.78112 0.3228 3.16089 0.24553 0.0138615 -0.849648
12 -1.85785 3.38988 1.69901 -0.322417 -0.727487 -0.323608
210 1.92696 0.0732473 1.05614 -0.635548 0.0031243 0.58729
124 -2.41305 1.30262 2.801 -0.16149 1.33162 0.219119
213 -1.8565 1.33514 1.30941 1.35316 0.613599 1.19711
52 -3.06971 0.33556 1.28254 0.469076 0.948928 0.00182332
147 -2.60701 0.304453 2.29088 0.748972 0.364991 0.621075
85 -2.79173 3.16472 2.48826 0.841781 0.750362 -0.1111
143 -1.59285 1.83176 3.27623 -0.646431 -0.136355 0.990072
73 -2.44873 1.98142 0.809773 0.0880263 -0.756152 0.672849
134 -1.97214 0.206077 1.15076 0.530068 0.458224 -0.484262
200 -1.6137 0.675795 2.05471 -0.124488 -0.0375515 -0.31791
295 3.29685 3.49712 3.61314 1.23948 -1.2324 -0.506433
19 -1.87673 3.66388 2.73154 -0.764321 1.27666 -0.698091
217 -0.821195 2.55783 3.52145 -0.160031 -0.157088 0.850976
99 -1.58656 2.45719 0.101088 -1.05148 -0.938437 -0.216857
89 -1.79317 2.86094 3.58083 -0.140239 0.192556 -0.767253
4 -0.789118 3.51978 1.96898 -0.628991 -0.341512 0.487681
228 -1.21552 2.7695 2.55518 0.784202 1.40117 -0.514568
139 -1.22629 1.68913 2.20107 0.621943 0.789096 0.953855
197 1.00589 0.327631 3.33059 -0.0832739 0.124762 0.497901
155 -0.959296 0.748603 1.1605 -1.14306 -1.00677 0.228847
96 -0.04421 3.06255 2.52218 0.344186 -0.28364 0.974951
156 -0.766556 2.85022 0.636297 0.317757 -0.208532 -0.639067
313 0.230669 2.51497 0.931622 -0.67518 0.38582 0.0881374
83 0.05823 2.03849 2.91152 0.461267 0.361051 0.805429
218 0.509561 1.16989 2.50822 0.186168 -0.0757619 -0.702975
79 -0.363996 0.662515 2.01739 -0.154577 0.337626 0.35722
141 -0.419281 2.57061 1.76763 0.0864994 0.106192 -0.692859
159 0.722355 2.25246 2.05605 -0.515735 -0.918729 0.785863
278 -0.862788 1.01088 2.89508 0.515485 0.573057 1.21592
234 0.75977 0.451314 1.49792 0.0448526 0.042025 -0.487803
308 0.27347 1.56662 1.4584 -1.44337 0.617758 -0.193727
165 0.855555 2.64794 3.29159 -0.279911 -0.496833 0.821545
154 -0.623351 1.84265 0.941324 1.25173 0.252752 0.921963
174 0.955399 3.30134 0.755051 0.367853 0.0766961 0.533556
209 -0.130299 0.485007 3.35114 1.6176 0.119192 -1.31391
128 -1.17469 1.33796 0.187525 -0.963681 -0.929966 -0.0307669
227 0.898532 3.3288 1.93518 -0.8863 -0.293644 1.37942
201 0.512547 1.40924 3.68131 -1.21736 -0.840831 -0.560583
162 0.0879241 3.31032 3.57426 0.476657 0.140946 -0.224754
178 -0.0252232 3.46801 1.34479 -0.354602 -0.508473 0.312275
161 1.35684 1.65485 3.05612 -0.2726 -0.372248 0.805462
84 -0.803727 3.65539 3.07151 -0.0209009 0.582751 -0.588932
291 -3.68503 2.15317 3.40514 -0.0569191 0.34956 -0.0166573
241 1.94399 3.33609 0.864643 0.674245 -0.233036 -0.220652
302 2.21277 2.33147 0.467171 0.582317 0.0259953 0.769642
76 -3.6718 0.404485 2.10477 -0.348456 0.182822 1.23105
121 3.4632 0.224293 3.11054 0.149008 0.881822 0.165023
180 1.85182 2.76202 3.50667 0.488426 0.0651334 -0.0526762
290 -3.65271 2.2947 1.40793 -1.05751 -0.360732 0.843096
110 2.31321 1.02144 1.46837 -0.388809 -0.07015 -0.297552
53 3.03576 1.63183 0.862913 1.29597 0.198865 -0.307842
306 3.34574 1.57834 2.14709 -0.798756 -0.306951 0.0399385
246 2.32805 1.61368 2.52778 -0.264015 0.297345 0.324308
30 -3.7255 0.848283 0.501195 0.34924 0.413129 -0.447693
289 1.52131 1.35891 0.797533 0.551578 -1.09927 -0.306007
314 2.68958 0.509116 0.32066 0.750736 -0.733446 0.820453
72 2.24628 2.12153 1.58609 -0.71866 0.611745 0.121416
311 1.35742 1.41694 1.94256 0.0114038 0.818968 -0.247808
282 3.18849 0.471243 1.26259 -1.12949 -0.122106 -0.240336
179 2.15466 3.32256 1.82904 0.928703 -0.737429 -0.823838
310 3.65691 2.9853 2.74761 -0.508937 0.0107705 -0.486095
229 1.32039 2.39309 1.25698 0.166041 0.962792 -0.202952
66 3.1367 2.44479 0.0109614 -0.281482 -0.151567 -0.498356
294 3.12011 1.3729 3.28752 -0.349297 0.546236 -0.192281
315 2.61428 3.42669 2.8252 -0.591109 0.913337 -0.678313
203 1.96056 0.871563 3.30142 0.917359 -0.119344 -0.514721
231 2.79239 2.43697 3.1638 -0.228206 0.310864 0.415938
212 1.5686 0.454287 2.32548 0.990476 -1.59267 -0.112506
135 2.76652 0.70328 2.43553 -0.768996 -0.578824 0.598166
219 1.68019 2.45407 2.43731 0.0686372 -0.521159 -0.843726
247 3.01148 2.65389 2.04976 0.0761556 -0.459422 0.71127
71 2.91689 2.92864 1.00409 -0.440523 -0.896572 -0.242574
61 -2.92552 3.26984 3.55611 0.802266 -0.694322 0.380314
211 0.326117 0.0114476 2.47182 0.0175734 0.00825569 0.577534
230 1.483 3.42444 2.74877 -0.82784 0.099055 -0.66605
