ITEM: TIMESTEP
0
ITEM: NUMBER OF ATOMS
324
ITEM: BOX BOUNDS pp pp pp
-7.9699392688695818e+00 7.9699392688695818e+00
-7.9699392688695818e+00 7.9699392688695818e+00
-7.9699392688695818e+00 7.9699392688695818e+00
ITEM: ATOMS id x y z vx vy vz
49 -1.6 -1.6 -3.2 0 0 0
50 -1.6 -0.8 -2.4 0 0 0
51 -0.8 -1.6 -2.4 0 0 0
52 -0.8 -0.8 -3.2 0 0 0
133 0 -1.6 -3.2 0 0 0
134 0 -0.8 -2.4 0 0 0
135 0.8 -1.6 -2.4 0 0 0
136 0.8 -0.8 -3.2 0 0 0
217 1.6 -1.6 -3.2 0 0 0
218 1.6 -0.8 -2.4 0 0 0
219 2.4 -1.6 -2.4 0 0 0
220 2.4 -0.8 -3.2 0 0 0
69 -1.6 0 -3.2 0 0 0
70 -1.6 0.8 -2.4 0 0 0
71 -0.8 0 -2.4 0 0 0
72 -0.8 0.8 -3.2 0 0 0
89 -1.6 1.6 -3.2 0 0 0
91 -0.8 1.6 -2.4 0 0 0
153 0 0 -3.2 0 0 0
154 0 0.8 -2.4 0 0 0
155 0.8 0 -2.4 0 0 0
156 0.8 0.8 -3.2 0 0 0
173 0 1.6 -3.2 0 0 0
175 0.8 1.6 -2.4 0 0 0
237 1.6 0 -3.2 0 0 0
238 1.6 0.8 -2.4 0 0 0
257 1.6 1.6 -3.2 0 0 0
239 2.4 0 -2.4 0 0 0
240 2.4 0.8 -3.2 0 0 0
259 2.4 1.6 -2.4 0 0 0
90 -1.6 2.4 -2.4 0 0 0
92 -0.8 2.4 -3.2 0 0 0
174 0 2.4 -2.4 0 0 0
176 0.8 2.4 -3.2 0 0 0
258 1.6 2.4 -2.4 0 0 0
260 2.4 2.4 -3.2 0 0 0
37 -1.6 -3.2 -1.6 0 0 0
38 -1.6 -2.4 -0.8 0 0 0
39 -0.8 -3.2 -0.8 0 0 0
40 -0.8 -2.4 -1.6 0 0 0
121 0 -3.2 -1.6 0 0 0
122 0 -2.4 -0.8 0 0 0
123 0.8 -3.2 -0.8 0 0 0
124 0.8 -2.4 -1.6 0 0 0
205 1.6 -3.2 -1.6 0 0 0
206 1.6 -2.4 -0.8 0 0 0
207 2.4 -3.2 -0.8 0 0 0
208 2.4 -2.4 -1.6 0 0 0
1 -3.2 -1.6 -1.6 0 0 0
2 -3.2 -0.8 -0.8 0 0 0
3 -2.4 -1.6 -0.8 0 0 0
4 -2.4 -0.8 -1.6 0 0 0
53 -1.6 -1.6 -1.6 0 0 0
54 -1.6 -0.8 -0.8 0 0 0
55 -0.8 -1.6 -0.8 0 0 0
56 -0.8 -0.8 -1.6 0 0 0
137 0 -1.6 -1.6 0 0 0
138 0 -0.8 -0.8 0 0 0
139 0.8 -1.6 -0.8 0 0 0
140 0.8 -0.8 -1.6 0 0 0
221 1.6 -1.6 -1.6 0 0 0
222 1.6 -0.8 -0.8 0 0 0
223 2.4 -1.6 -0.8 0 0 0
224 2.4 -0.8 -1.6 0 0 0
289 3.2 -1.6 -1.6 0 0 0
290 3.2 -0.8 -0.8 0 0 0
291 4 -1.6 -0.8 0 0 0
292 4 -0.8 -1.6 0 0 0
13 -3.2 0 -1.6 0 0 0
14 -3.2 0.8 -0.8 0 0 0
15 -2.4 0 -0.8 0 0 0
16 -2.4 0.8 -1.6 0 0 0
25 -3.2 1.6 -1.6 0 0 0
27 -2.4 1.6 -0.8 0 0 0
73 -1.6 0 -1.6 0 0 0
74 -1.6 0.8 -0.8 0 0 0
75 -0.8 0 -0.8 0 0 0
76 -0.8 0.8 -1.6 0 0 0
93 -1.6 1.6 -1.6 0 0 0
95 -0.8 1.6 -0.8 0 0 0
157 0 0 -1.6 0 0 0
158 0 0.8 -0.8 0 0 0
159 0.8 0 -0.8 0 0 0
160 0.8 0.8 -1.6 0 0 0
177 0 1.6 -1.6 0 0 0
179 0.8 1.6 -0.8 0 0 0
241 1.6 0 -1.6 0 0 0
242 1.6 0.8 -0.8 0 0 0
261 1.6 1.6 -1.6 0 0 0
243 2.4 0 -0.8 0 0 0
244 2.4 0.8 -1.6 0 0 0
263 2.4 1.6 -0.8 0 0 0
301 3.2 0 -1.6 0 0 0
302 3.2 0.8 -0.8 0 0 0
313 3.2 1.6 -1.6 0 0 0
303 4 0 -0.8 0 0 0
304 4 0.8 -1.6 0 0 0
315 4 1.6 -0.8 0 0 0
26 -3.2 2.4 -0.8 0 0 0
28 -2.4 2.4 -1.6 0 0 0
94 -1.6 2.4 -0.8 0 0 0
96 -0.8 2.4 -1.6 0 0 0
109 -1.6 3.2 -1.6 0 0 0
111 -0.8 3.2 -0.8 0 0 0
178 0 2.4 -0.8 0 0 0
180 0.8 2.4 -1.6 0 0 0
193 0 3.2 -1.6 0 0 0
195 0.8 3.2 -0.8 0 0 0
262 1.6 2.4 -0.8 0 0 0
277 1.6 3.2 -1.6 0 0 0
264 2.4 2.4 -1.6 0 0 0
279 2.4 3.2 -0.8 0 0 0
314 3.2 2.4 -0.8 0 0 0
316 4 2.4 -1.6 0 0 0
110 -1.6 4 -0.8 0 0 0
112 -0.8 4 -1.6 0 0 0
194 0 4 -0.8 0 0 0
196 0.8 4 -1.6 0 0 0
278 1.6 4 -0.8 0 0 0
280 2.4 4 -1.6 0 0 0
41 -1.6 -3.2 0 0 0 0
42 -1.6 -2.4 0.8 0 0 0
43 -0.8 -3.2 0.8 0 0 0
44 -0.8 -2.4 0 0 0 0
45 -1.6 -3.2 1.6 0 0 0
48 -0.8 -2.4 1.6 0 0 0
125 0 -3.2 0 0 0 0
126 0 -2.4 0.8 0 0 0
127 0.8 -3.2 0.8 0 0 0
128 0.8 -2.4 0 0 0 0
129 0 -3.2 1.6 0 0 0
132 0.8 -2.4 1.6 0 0 0
209 1.6 -3.2 0 0 0 0
210 1.6 -2.4 0.8 0 0 0
213 1.6 -3.2 1.6 0 0 0
211 2.4 -3.2 0.8 0 0 0
212 2.4 -2.4 0 0 0 0
216 2.4 -2.4 1.6 0 0 0
5 -3.2 -1.6 0 0 0 0
6 -3.2 -0.8 0.8 0 0 0
7 -2.4 -1.6 0.8 0 0 0
8 -2.4 -0.8 0 0 0 0
9 -3.2 -1.6 1.6 0 0 0
12 -2.4 -0.8 1.6 0 0 0
57 -1.6 -1.6 0 0 0 0
58 -1.6 -0.8 0.8 0 0 0
59 -0.8 -1.6 0.8 0 0 0
60 -0.8 -0.8 0 0 0 0
61 -1.6 -1.6 1.6 0 0 0
64 -0.8 -0.8 1.6 0 0 0
141 0 -1.6 0 0 0 0
142 0 -0.8 0.8 0 0 0
143 0.8 -1.6 0.8 0 0 0
144 0.8 -0.8 0 0 0 0
145 0 -1.6 1.6 0 0 0
148 0.8 -0.8 1.6 0 0 0
225 1.6 -1.6 0 0 0 0
226 1.6 -0.8 0.8 0 0 0
229 1.6 -1.6 1.6 0 0 0
227 2.4 -1.6 0.8 0 0 0
228 2.4 -0.8 0 0 0 0
232 2.4 -0.8 1.6 0 0 0
293 3.2 -1.6 0 0 0 0
294 3.2 -0.8 0.8 0 0 0
297 3.2 -1.6 1.6 0 0 0
295 4 -1.6 0.8 0 0 0
296 4 -0.8 0 0 0 0
300 4 -0.8 1.6 0 0 0
17 -3.2 0 0 0 0 0
18 -3.2 0.8 0.8 0 0 0
19 -2.4 0 0.8 0 0 0
20 -2.4 0.8 0 0 0 0
21 -3.2 0 1.6 0 0 0
24 -2.4 0.8 1.6 0 0 0
29 -3.2 1.6 0 0 0 0
31 -2.4 1.6 0.8 0 0 0
33 -3.2 1.6 1.6 0 0 0
77 -1.6 0 0 0 0 0
78 -1.6 0.8 0.8 0 0 0
79 -0.8 0 0.8 0 0 0
80 -0.8 0.8 0 0 0 0
81 -1.6 0 1.6 0 0 0
84 -0.8 0.8 1.6 0 0 0
97 -1.6 1.6 0 0 0 0
99 -0.8 1.6 0.8 0 0 0
101 -1.6 1.6 1.6 0 0 0
161 0 0 0 0 0 0
162 0 0.8 0.8 0 0 0
163 0.8 0 0.8 0 0 0
164 0.8 0.8 0 0 0 0
165 0 0 1.6 0 0 0
168 0.8 0.8 1.6 0 0 0
181 0 1.6 0 0 0 0
183 0.8 1.6 0.8 0 0 0
185 0 1.6 1.6 0 0 0
245 1.6 0 0 0 0 0
246 1.6 0.8 0.8 0 0 0
249 1.6 0 1.6 0 0 0
265 1.6 1.6 0 0 0 0
269 1.6 1.6 1.6 0 0 0
247 2.4 0 0.8 0 0 0
248 2.4 0.8 0 0 0 0
252 2.4 0.8 1.6 0 0 0
267 2.4 1.6 0.8 0 0 0
305 3.2 0 0 0 0 0
306 3.2 0.8 0.8 0 0 0
309 3.2 0 1.6 0 0 0
317 3.2 1.6 0 0 0 0
321 3.2 1.6 1.6 0 0 0
307 4 0 0.8 0 0 0
308 4 0.8 0 0 0 0
312 4 0.8 1.6 0 0 0
319 4 1.6 0.8 0 0 0
30 -3.2 2.4 0.8 0 0 0
32 -2.4 2.4 0 0 0 0
36 -2.4 2.4 1.6 0 0 0
98 -1.6 2.4 0.8 0 0 0
100 -0.8 2.4 0 0 0 0
104 -0.8 2.4 1.6 0 0 0
113 -1.6 3.2 0 0 0 0
115 -0.8 3.2 0.8 0 0 0
117 -1.6 3.2 1.6 0 0 0
182 0 2.4 0.8 0 0 0
184 0.8 2.4 0 0 0 0
188 0.8 2.4 1.6 0 0 0
197 0 3.2 0 0 0 0
199 0.8 3.2 0.8 0 0 0
201 0 3.2 1.6 0 0 0
266 1.6 2.4 0.8 0 0 0
281 1.6 3.2 0 0 0 0
285 1.6 3.2 1.6 0 0 0
268 2.4 2.4 0 0 0 0
272 2.4 2.4 1.6 0 0 0
283 2.4 3.2 0.8 0 0 0
318 3.2 2.4 0.8 0 0 0
320 4 2.4 0 0 0 0
324 4 2.4 1.6 0 0 0
114 -1.6 4 0.8 0 0 0
116 -0.8 4 0 0 0 0
120 -0.8 4 1.6 0 0 0
198 0 4 0.8 0 0 0
200 0.8 4 0 0 0 0
204 0.8 4 1.6 0 0 0
282 1.6 4 0.8 0 0 0
284 2.4 4 0 0 0 0
288 2.4 4 1.6 0 0 0
46 -1.6 -2.4 2.4 0 0 0
47 -0.8 -3.2 2.4 0 0 0
130 0 -2.4 2.4 0 0 0
131 0.8 -3.2 2.4 0 0 0
214 1.6 -2.4 2.4 0 0 0
215 2.4 -3.2 2.4 0 0 0
10 -3.2 -0.8 2.4 0 0 0
11 -2.4 -1.6 2.4 0 0 0
62 -1.6 -0.8 2.4 0 0 0
63 -0.8 -1.6 2.4 0 0 0
65 -1.6 -1.6 3.2 0 0 0
68 -0.8 -0.8 3.2 0 0 0
146 0 -0.8 2.4 0 0 0
147 0.8 -1.6 2.4 0 0 0
149 0 -1.6 3.2 0 0 0
152 0.8 -0.8 3.2 0 0 0
230 1.6 -0.8 2.4 0 0 0
233 1.6 -1.6 3.2 0 0 0
231 2.4 -1.6 2.4 0 0 0
236 2.4 -0.8 3.2 0 0 0
298 3.2 -0.8 2.4 0 0 0
299 4 -1.6 2.4 0 0 0
22 -3.2 0.8 2.4 0 0 0
23 -2.4 0 2.4 0 0 0
35 -2.4 1.6 2.4 0 0 0
82 -1.6 0.8 2.4 0 0 0
83 -0.8 0 2.4 0 0 0
85 -1.6 0 3.2 0 0 0
88 -0.8 0.8 3.2 0 0 0
103 -0.8 1.6 2.4 0 0 0
105 -1.6 1.6 3.2 0 0 0
166 0 0.8 2.4 0 0 0
167 0.8 0 2.4 0 0 0
169 0 0 3.2 0 0 0
172 0.8 0.8 3.2 0 0 0
187 0.8 1.6 2.4 0 0 0
189 0 1.6 3.2 0 0 0
250 1.6 0.8 2.4 0 0 0
253 1.6 0 3.2 0 0 0
273 1.6 1.6 3.2 0 0 0
251 2.4 0 2.4 0 0 0
256 2.4 0.8 3.2 0 0 0
271 2.4 1.6 2.4 0 0 0
310 3.2 0.8 2.4 0 0 0
311 4 0 2.4 0 0 0
323 4 1.6 2.4 0 0 0
34 -3.2 2.4 2.4 0 0 0
102 -1.6 2.4 2.4 0 0 0
108 -0.8 2.4 3.2 0 0 0
119 -0.8 3.2 2.4 0 0 0
186 0 2.4 2.4 0 0 0
192 0.8 2.4 3.2 0 0 0
203 0.8 3.2 2.4 0 0 0
270 1.6 2.4 2.4 0 0 0
276 2.4 2.4 3.2 0 0 0
287 2.4 3.2 2.4 0 0 0
322 3.2 2.4 2.4 0 0 0
118 -1.6 4 2.4 0 0 0
202 0 4 2.4 0 0 0
286 1.6 4 2.4 0 0 0
66 -1.6 -0.8 4 0 0 0
67 -0.8 -1.6 4 0 0 0
150 0 -0.8 4 0 0 0
151 0.8 -1.6 4 0 0 0
234 1.6 -0.8 4 0 0 0
235 2.4 -1.6 4 0 0 0
86 -1.6 0.8 4 0 0 0
87 -0.8 0 4 0 0 0
107 -0.8 1.6 4 0 0 0
170 0 0.8 4 0 0 0
171 0.8 0 4 0 0 0
191 0.8 1.6 4 0 0 0
254 1.6 0.8 4 0 0 0
255 2.4 0 4 0 0 0
275 2.4 1.6 4 0 0 0
106 -1.6 2.4 4 0 0 0
190 0 2.4 4 0 0 0
274 1.6 2.4 4 0 0 0
ITEM: TIMESTEP
100000
ITEM: NUMBER OF ATOMS
324
ITEM: BOX BOUNDS pp pp pp
-7.9699392688695818e+00 7.9699392688695818e+00
-7.9699392688695818e+00 7.9699392688695818e+00
-7.9699392688695818e+00 7.9699392688695818e+00
ITEM: ATOMS id x y z vx vy vz
173 0.110895 -0.621022 -4.11886 -1.04985 0.278309 1.93766
51 0.246086 -2.41835 -2.3415 0.0999415 0.67739 -1.10686
220 1.69786 -2.44 -2.25257 -0.0435411 -0.106203 0.597975
135 1.00432 -3.2726 -2.04378 0.277075 0.675146 -0.0815659
239 2.62826 -1.77686 -1.84595 -0.143988 0.0810341 -0.390939
153 -2.23202 -0.782216 -3.07855 -0.311706 0.0996546 -1.20014
4 -2.26525 0.140645 -2.41033 -0.597741 -0.376658 -0.151983
49 -0.573085 -1.53068 -2.47548 0.764223 0.0426296 -0.117148
50 -1.48902 -0.783224 -2.35483 0.356793 0.619416 -0.253006
69 -0.717177 -0.87987 -3.26549 1.09862 -0.583438 -1.10654
134 0.131727 -0.751984 -2.36146 0.163459 -0.971962 -0.314779
52 0.100347 -1.60786 -3.29814 -0.0273258 0.520583 -0.39717
136 0.849707 -1.55439 -2.38597 -0.21514 0.294701 0.640473
237 1.64069 -0.507171 -2.5539 -0.559976 0.191352 1.00257
217 0.852323 -0.781994 -3.20035 -0.649642 -0.289791 -0.0820875
291 1.85154 -1.49425 -2.90954 -0.169688 -0.0666662 -0.224659
133 0.0871336 0.00349794 -3.20979 -1.52278 -0.149614 -0.327164
293 2.88768 -1.12381 -2.74994 -0.0275062 0.0572277 -0.637394
89 -2.91399 0.940443 -2.85899 -0.103196 0.748174 0.597164
176 -2.0945 1.83782 -2.78298 0.737796 -0.186732 -0.239231
70 -1.52642 0.152721 -3.17006 0.264834 -1.12281 -0.317803
71 -0.732989 -0.0149762 -2.46642 -1.0755 -0.309405 0.628513
72 -0.598214 0.715962 -3.76353 0.231526 0.631326 0.111694
90 -0.893325 1.00713 -2.80519 -0.198935 0.524473 0.174004
93 -1.73567 0.930301 -2.00699 0.637742 -0.0648564 0.406803
91 -1.12974 1.8369 -2.03974 0.202034 -0.723692 -0.220164
154 0.0617781 0.850562 -2.4189 0.403664 -0.429189 0.184474
92 0.37952 1.25036 -3.29497 0.38924 0.566695 0.542581
240 1.16227 0.378443 -3.45353 0.0108612 -0.200175 -0.5849
155 0.888805 0.120431 -2.38286 -0.805152 0.170355 0.16918
219 1.45414 1.60568 -3.48708 0.757495 0.436005 0.0898618
175 0.739791 1.69064 -2.33256 0.409151 0.694592 0.233666
238 1.65187 1.00665 -2.39489 0.248293 0.25121 -1.01711
259 2.51513 0.392899 -2.47156 0.740218 -1.32403 0.106624
313 2.90868 1.61023 -2.27206 -0.51477 -0.334221 0.697357
174 -0.328381 1.87745 -2.75842 0.286169 -0.40251 0.366208
193 -1.26592 2.61024 -2.82072 -0.0547852 -0.709015 -0.13349
96 -0.209074 2.67827 -1.96482 0.988555 -0.0686415 0.89721
264 1.67269 2.25017 -2.51136 -1.2184 -0.0536007 -0.655977
156 0.689409 2.66591 -2.79906 -1.00439 1.18443 -0.519366
38 -1.64984 -2.25635 -0.870165 -0.187118 1.08204 -0.749702
40 -0.49984 -2.35099 -1.53543 -0.368424 0.019506 0.561597
121 -0.881128 -3.11289 -0.894078 0.31086 1.84089 -0.316952
44 -0.811451 -2.40774 -0.0900038 -0.633428 0.389785 0.702204
124 0.0570549 -3.37182 -1.36508 0.385041 -0.326734 -0.295305
122 0.142549 -2.23657 -0.717445 -0.16148 0.531394 0.0524298
123 0.881201 -3.04267 -0.765631 -0.649531 -0.180452 0.114655
206 1.82617 -2.1438 -0.957046 0.73582 -0.16213 -0.959716
221 0.913974 -2.24785 -1.54036 0.900062 -0.652288 0.590394
128 1.00777 -2.22193 -0.00980996 -0.400991 1.13056 -0.556401
209 1.76676 -3.01296 -0.164118 0.169088 0.0931172 -0.111719
125 0.00611619 -3.31595 -0.155633 0.0675725 0.718567 -0.0704556
205 1.79261 -3.09699 -1.32445 -0.169038 0.388477 0.464312
212 2.71979 -3.16871 -0.599515 -0.137204 0.711723 -0.705329
223 2.53779 -2.07405 -0.192342 0.677173 0.220109 1.23037
292 3.77481 -2.41569 -0.190364 -0.0871832 -0.354356 1.03132
207 3.19705 -2.02515 -1.01319 -0.542093 -1.53494 1.16257
3 -2.71295 -1.69146 -1.23732 0.185829 -0.456127 0.113322
1 -2.44352 -0.824905 -1.94317 -0.573696 -1.26115 -1.34734
2 -3.00778 -0.821081 -0.902674 -0.834286 0.215932 -0.543583
13 -3.77534 -0.0178331 -0.889913 -0.201997 1.29291 0.240995
15 -2.34964 -0.00874829 -0.874848 0.0682523 -0.705293 -0.0460171
17 -3.08897 0.0553168 -0.110058 0.940906 -0.72951 0.281884
8 -2.32744 -0.750446 -0.11954 -0.86992 -0.409163 -1.66841
37 -1.38081 -1.66485 -1.76302 -0.415297 1.37798 1.09237
54 -1.56007 -0.925907 -0.983584 0.194969 -0.447391 -0.262136
55 -0.682055 -1.54848 -0.773779 0.546126 -0.588572 0.361829
56 -0.781358 -0.701594 -1.59885 1.24081 -1.08248 1.11623
138 0.113392 -0.699499 -0.839246 0.00688025 -0.924837 -0.182252
57 -1.54364 -1.58606 -0.108348 -0.34818 0.0304422 0.31776
218 1.63839 -1.35321 -1.63557 -0.211215 0.0980235 0.202464
137 0.147483 -1.49059 -1.55948 0.317699 -1.42421 0.71305
139 0.95625 -1.39169 -0.886894 -1.1288 -0.946978 -0.128576
140 0.90787 -0.609506 -1.63731 -0.572175 -0.0352381 0.398992
222 1.68481 -0.646712 -0.898737 0.930223 0.32229 0.0901701
141 0.196204 -1.42843 -0.0339456 0.310256 0.934828 0.0622452
144 0.894739 -0.655404 -0.0629572 0.000536203 1.36946 0.214561
225 1.68879 -1.37562 -0.0178436 -0.719562 0.607679 -0.506464
224 2.45489 -0.489934 -1.73172 -0.406243 -0.384403 0.292218
290 2.46859 -1.28271 -0.949028 -0.0724271 -0.284098 0.287528
303 3.32028 -0.37792 -0.901906 1.10928 1.19054 0.0366265
289 3.3726 -1.33624 -0.168245 -0.648056 -0.305093 0.842841
228 2.47386 -0.647107 -0.055406 0.049489 0.686897 0.22466
304 3.7572 -1.2751 -1.3864 -1.52817 -0.156166 -1.47813
14 -2.6691 0.789287 -1.50675 -0.0650429 -0.661583 0.0494271
28 -3.18555 0.960444 -0.615696 -1.21734 -0.108327 1.03366
29 -2.52134 1.81187 -0.412109 0.910806 -0.702435 0.770593
16 -2.75493 1.87263 -1.91964 -0.203629 -0.989923 -0.242222
112 -3.58376 2.15212 -0.78593 0.0709319 0.0151531 0.923814
20 -2.34978 0.827877 0.0996481 -0.221385 -0.0468539 0.0584253
75 -0.747574 0.0749852 -0.83401 0.134606 -0.190482 -0.642086
73 -1.57526 -0.0422203 -1.58755 1.17801 -0.764205 0.172466
27 -1.93498 1.74791 -1.31882 -0.348347 -0.111386 -0.454958
74 -1.62326 0.843962 -0.887937 -0.54411 0.210214 -0.666298
76 -0.721974 0.655905 -1.66224 0.118853 -0.526634 -0.0650405
95 -0.813853 1.56399 -0.914913 -0.0935648 0.285107 1.09685
97 -1.50348 1.54637 -0.078806 -0.206265 -1.14695 0.0802521
77 -1.51349 0.0385929 -0.112679 -0.941297 -0.475234 0.353542
157 0.113883 0.0365923 -1.60388 0.161408 -0.348814 -0.0570495
177 -0.154591 1.59693 -1.72378 0.353805 -0.253704 0.17335
161 0.0903493 0.0622685 -0.104933 0.150673 0.527226 1.02906
241 1.61069 0.17747 -1.66911 0.987143 -0.0773899 -0.667561
159 0.927627 0.160415 -0.905177 -0.580009 0.204909 0.049749
158 0.0727683 0.846508 -0.857249 0.801944 1.00814 -0.853898
160 0.759091 0.903118 -1.66158 0.30316 -1.15649 0.146531
261 1.54713 1.66323 -1.64289 0.631429 0.210012 -0.570624
242 1.63449 0.956497 -0.664081 1.10684 -0.103597 0.474513
179 0.765477 1.69481 -0.902884 -0.556442 -0.473781 -0.909711
265 1.64596 1.7137 0.0763185 1.11276 0.0027528 0.625608
164 0.79951 0.930637 0.00126823 -0.681278 -0.00127134 0.142764
245 1.6514 0.173158 -0.0141739 0.563329 -1.53391 1.06824
243 2.33967 0.138956 -0.851086 1.08505 0.224251 0.236987
315 3.53753 1.71936 -1.21925 -1.11066 -1.21968 0.429781
301 3.61957 0.42317 -1.78642 0.310425 0.0179587 -0.696799
244 2.36949 1.00019 -1.55367 0.496497 1.31683 -0.235867
263 2.38596 1.76968 -0.862062 -0.372271 0.0965043 -0.0736423
302 3.27292 0.774784 -0.853911 -0.245563 0.232979 0.439785
317 3.29557 1.67541 -0.222878 -0.507402 0.881842 0.246848
248 2.47415 0.914022 -0.0306576 -1.09244 -0.488052 0.943435
305 3.34524 0.151322 -0.00892344 -0.589117 -0.0278227 1.10686
308 4.17562 0.924041 0.00671284 0.24463 0.489579 0.264359
277 -2.62297 2.66611 -1.00339 0.525936 0.205479 0.0644046
113 -2.15417 3.37125 -0.0736509 -0.964989 0.063744 1.89173
53 -0.957841 3.40473 -2.12423 -0.514533 -0.499903 -0.0903965
26 -1.9649 2.66196 -2.00064 0.90924 0.132398 0.267547
114 -1.82966 3.44223 -1.23858 0.435699 0.0643373 -0.149314
94 -1.71827 2.51644 -0.404108 0.462622 0.104482 -0.0962186
111 -1.14055 2.52371 -1.33333 -0.037112 -0.184434 1.0859
116 -1.13004 3.36391 -0.437903 -1.41595 0.069925 -0.855803
100 -0.72146 2.40972 -0.125895 0.185307 -1.27507 -0.368683
194 -0.336459 3.51592 -1.1644 -0.317238 0.187823 -0.104292
197 -0.0555294 3.17302 -0.138361 0.213098 0.439976 0.0861292
258 0.465098 3.70908 -1.82197 -0.334747 0.668726 0.216096
260 1.62458 3.10129 -1.65444 0.833523 0.250547 -0.325644
178 -0.0667826 2.37695 -0.950426 0.282278 0.0520165 0.365388
180 0.807104 2.54357 -1.66133 0.322571 -0.186242 0.335307
195 0.872408 3.12483 -0.817354 0.764088 -0.329859 -0.394518
262 1.68726 2.51053 -0.684077 0.337917 0.447568 -0.198787
281 1.63064 3.3102 -0.0618618 -1.5372 -0.509651 0.143409
184 0.73514 2.45007 -0.0369384 -0.220037 0.238186 -0.233212
196 1.38147 4.03541 -0.992536 0.166621 0.548995 0.440186
316 3.0685 2.68956 -0.833277 0.578697 0.9121 0.480256
278 2.25959 3.49152 -0.925742 0.0189997 -0.717556 -0.0805488
280 2.43597 2.42953 -1.69428 0.420791 -0.766295 0.724838
110 -0.568609 4.39107 -0.322087 -0.944475 -0.396975 0.194036
200 0.486389 4.10279 -0.305523 0.783355 -0.495626 1.05719
284 2.52106 4.37863 -0.372931 0.116712 -0.299952 -0.774797
42 -2.57456 -2.08463 1.19538 0.182184 -0.192043 -0.370654
39 -1.16851 -3.50191 0.263419 -0.440546 1.72543 0.341187
41 -1.89614 -2.6299 0.578783 0.105276 -0.333962 -0.0814013
43 -0.815642 -2.57817 0.968598 -0.337201 -0.605587 0.13948
129 0.0195527 -2.47809 1.61952 -0.641194 0.705696 -0.622708
46 -0.129605 -3.48277 0.946642 0.369072 -0.435344 0.578749
45 -1.65988 -2.49532 1.70044 0.161932 0.569649 0.137111
208 1.25574 -3.83368 0.217943 -0.588778 -0.920326 -0.454479
126 0.165792 -2.21478 0.575432 0.202661 -1.10322 -0.0568838
127 0.966684 -2.93647 0.731017 -0.360545 0.637045 -0.946584
132 1.02574 -2.18737 1.46457 -0.130652 -0.54168 0.678817
210 1.86236 -2.25303 0.585366 -0.463593 -0.962912 -0.0323452
131 1.69804 -3.00721 1.54256 -0.234473 0.56883 0.694021
296 2.59565 -3.2423 0.534488 0.730259 0.0509505 0.184352
231 2.46157 -2.22519 1.44584 -0.572674 0.379366 -0.154338
211 3.1561 -2.19286 0.69218 -1.16962 -0.939336 -0.140495
7 -2.5245 -1.84777 -0.0152099 0.315063 0.404738 0.313215
5 -3.29641 -1.13482 0.183219 0.672023 1.81116 -1.12946
6 -2.41128 -1.05529 0.941847 -0.983928 -0.279652 -0.0754646
21 -2.59725 -0.335947 1.70322 0.519122 0.58507 0.182028
11 -3.52791 -0.389035 1.14197 0.328477 0.10448 -0.0906175
10 -3.25922 -1.34214 1.75154 -0.186589 0.444505 -0.180239
19 -2.32827 0.015137 0.649158 1.05773 0.437172 -0.620313
60 -0.717619 -0.728873 -0.133608 -0.707676 0.874585 -0.446961
61 -1.53475 -1.70773 1.02296 0.780747 0.0248914 -0.219235
58 -1.45308 -0.688551 0.605603 -0.347848 -0.449597 -0.275623
59 -0.562927 -1.46052 0.619305 0.516302 0.891051 -0.408277
64 -0.712087 -0.670824 1.45661 0.552865 0.00729289 0.260915
12 -1.88496 -1.2643 1.9169 -1.33809 -0.282246 -0.195159
48 -0.801232 -1.77858 1.70992 0.633116 0.23627 1.3891
145 0.184553 -1.43802 1.44625 0.355019 0.48613 -0.45317
142 0.141411 -0.581885 0.715422 -0.150887 -0.314381 -0.0732966
143 0.917675 -1.45207 0.726875 0.874635 -0.1545 0.236886
229 1.79649 -1.36055 1.54742 -1.15007 -1.22715 0.446318
226 1.71908 -0.638542 0.715568 2.10434 -0.257748 1.16573
148 0.941518 -0.629294 1.49947 -0.719123 0.955691 0.193116
299 3.17326 -1.40334 1.52068 -0.0667673 1.17145 -0.0351266
227 2.47274 -1.39793 0.700062 -0.283168 0.148172 -0.278341
232 2.47286 -0.544336 1.66438 -0.41049 0.612916 -0.770396
294 3.25126 -0.634121 0.764995 -0.0239829 -0.710089 -0.0463696
311 4.03932 -0.649902 1.56655 -0.850953 0.310697 0.195331
297 4.01436 -1.49354 0.722606 -0.763232 0.558497 -0.998112
18 -3.32122 0.73167 0.858353 -0.462643 -0.803437 -0.683978
24 -2.39915 0.770614 1.36327 -0.703749 0.433164 -1.27758
31 -2.45776 1.64173 0.687268 0.248147 -0.279623 -0.233919
36 -3.30535 1.69216 1.38353 0.338402 -0.313479 0.28515
30 -3.46395 1.63719 0.24576 -0.682539 -0.6781 0.320059
102 -3.52152 0.359793 1.83357 0.0456281 0.19115 -0.370198
80 -0.735459 0.83871 -0.0459756 -0.556883 -0.589262 0.358471
81 -1.64154 8.86865e-05 1.43708 -0.301627 -1.64961 0.18783
79 -0.677053 0.0817255 0.632486 -0.592824 0.250183 -0.151069
78 -1.5135 0.712712 0.732706 0.258239 1.42197 -0.68441
101 -1.62902 1.58812 1.39419 0.360438 -0.0208498 0.595414
99 -0.886593 1.69096 0.693096 0.764048 0.377628 0.516762
84 -0.787362 0.822601 1.44729 0.0234955 1.21101 0.165672
185 -0.0156178 1.65236 1.6027 0.499569 0.151098 0.897856
181 -0.0181494 1.66369 -0.134053 -0.239348 1.08579 -0.327329
162 0.0854193 0.92888 0.84094 -1.49232 0.119977 -0.0409576
165 0.0281434 0.0811037 1.59703 0.846243 -0.407944 -1.04113
163 0.887655 0.151196 0.780925 -0.768409 -0.0892817 -0.0941017
249 1.61159 0.201969 1.51309 -0.407458 1.43032 0.588984
168 0.781352 0.90632 1.58957 -0.0247129 0.0643192 1.12577
183 0.776189 1.71245 0.714808 0.372665 -0.876561 -0.151766
246 1.63079 0.946262 0.752445 -0.917322 0.547793 -1.62891
269 1.56495 1.7316 1.59583 -0.695097 0.0481118 0.801962
247 2.45405 0.255809 0.782187 0.757076 -0.41665 1.35349
309 3.28257 0.216324 1.65232 0.336842 -0.488051 -0.42517
252 2.45446 0.96814 1.55611 0.143636 0.729114 0.266367
267 2.54247 1.73275 0.76549 -0.971193 0.268319 0.68711
306 3.30785 0.98335 0.722474 1.2001 0.44519 0.467733
312 3.50236 1.22009 1.84376 0.261985 1.56335 -0.313594
295 4.12197 0.14658 0.899087 -0.52891 1.22811 -0.0275033
321 2.69485 1.96719 1.79828 -1.37809 0.322794 0.24351
288 3.52596 2.01804 1.0386 -0.369764 -1.54001 0.0897549
307 4.28756 1.20942 1.19366 1.6718 -0.359177 -0.00541097
319 4.32061 0.354219 1.90665 -0.680364 0.318802 0.0712464
323 5.37942 1.40761 1.6007 -0.530778 -1.21346 -0.317519
320 4.32289 1.98901 0.35154 -0.793304 -0.450603 0.210512
25 -2.8401 2.62466 0.291538 -1.02749 -0.624597 0.203622
32 -2.49247 2.44446 1.37851 -1.18302 -0.405685 -0.578555
118 -1.84503 3.32367 1.53626 -0.0881539 -0.0456638 -0.502416
98 -1.66876 2.55425 0.61482 -0.218845 -0.246233 -0.360775
104 -0.914921 2.4167 1.49168 1.3084 0.596505 -0.701508
115 -0.847889 3.12074 0.709824 -0.439049 0.126717 -0.707947
182 -0.030578 2.34954 0.751749 0.266222 0.682756 0.329539
201 -0.081678 3.06762 1.4447 0.550605 1.01634 0.395968
188 0.810459 2.49564 1.56006 -0.20942 0.292415 -0.254098
199 0.614361 3.2376 0.682053 0.146035 -0.0652048 -1.19469
266 1.54846 2.57227 0.711813 0.769568 -0.55236 1.38737
204 0.961692 3.62829 1.59948 0.2399 -0.108445 -0.109844
285 1.9064 2.8649 1.81533 -0.183009 0.0832012 -0.882162
282 1.90223 3.56445 0.988978 0.0035184 0.450764 -0.575973
268 2.41066 2.49003 0.0278193 0.371289 -0.962658 0.0867632
279 2.80891 3.47135 0.119907 -0.558072 -1.04782 -0.595393
314 3.52076 2.7736 0.346202 0.528288 -0.283833 0.839502
272 2.67828 2.80388 0.98052 1.21688 0.0902864 -0.293332
287 4.62021 2.34662 1.37147 0.229123 0.899038 0.288808
198 -1.01585 3.97286 1.44262 -1.38918 -0.0617595 0.20608
120 -1.58654 4.47293 0.0110807 0.403839 0.491228 -0.349022
109 -0.0831124 4.02525 0.747992 2.04705 0.28361 0.822506
203 1.20495 4.18973 0.550542 -1.35328 0.71183 -1.67063
257 2.48542 4.47915 0.792915 0.643903 -0.322458 -0.193461
66 -2.57816 -2.03631 2.35953 -0.166612 0.691862 -0.0184413
47 -0.684811 -2.60169 2.41611 -0.868789 -0.770658 -0.552348
213 0.651987 -2.51587 2.47109 0.674902 -0.24893 0.313778
216 1.68248 -2.16781 2.30991 0.496762 0.848798 -0.594991
23 -2.61618 -1.00563 2.63448 -0.886642 0.77963 -0.749221
22 -2.38332 -0.295357 3.43947 -0.0313444 0.573275 0.00170805
130 -0.85393 -2.09493 3.47307 0.936114 -0.519685 -0.195558
9 -1.55768 -1.95012 2.66589 -0.162784 -0.55204 -0.350823
67 -1.54348 -1.09701 3.24209 -0.540065 -0.583914 0.631639
62 -1.82952 -0.281562 2.51523 0.914989 -0.265978 0.549326
68 -0.991602 -1.01654 2.37362 -0.290238 -0.584072 -0.984893
150 -0.42379 -0.910379 3.3059 -0.405152 -1.08636 -0.529696
87 -1.14692 -0.110417 3.47272 0.265305 -0.889422 -0.197256
63 -0.115589 -1.66487 2.6205 0.656472 -0.316728 -0.390445
146 0.0508227 -0.682216 2.28566 -0.124066 0.809698 0.135651
149 0.590487 -1.78612 3.4801 -0.216446 0.18117 0.0134215
214 1.5299 -1.46757 3.12982 1.02696 0.131385 0.0510158
147 0.9462 -1.32921 2.26126 0.152733 0.829763 -0.265198
152 0.70984 -0.69156 3.12857 1.24133 -0.756082 -0.646677
230 1.74331 -0.65263 2.38137 0.787877 -1.57011 0.78625
215 2.50798 -1.45622 2.44464 -0.501471 -0.454711 -1.49007
298 3.34573 -0.594099 2.31338 0.436261 0.57504 -0.32898
235 2.35012 -0.586444 3.21417 -0.0749643 -0.344537 -0.289187
310 3.39579 -0.2826 3.54511 -0.537341 -0.679428 0.101739
300 3.4821 -1.5836 2.84876 0.494511 -0.319866 -0.579596
35 -2.62907 0.417439 2.50966 0.60381 0.362823 0.196242
117 -2.819 1.32261 3.17465 -1.17702 -0.280005 -0.806773
34 -2.4035 1.64459 2.10644 0.63075 0.602798 -0.685892
83 -0.78013 0.0747259 2.32644 -0.323455 -0.260831 0.262055
85 -1.82976 0.65863 3.26476 0.566339 0.0364027 -0.132532
82 -1.58714 0.731185 2.22008 0.819198 0.596171 0.582542
88 -0.833839 0.903288 3.08088 0.489185 -0.394169 -0.551294
103 -0.844248 1.64918 2.20136 -0.0416024 -0.357174 0.338983
105 -1.68708 1.64325 2.95568 -0.115074 -1.30054 0.692859
166 -0.000926862 0.840828 2.3891 0.360822 -0.0691947 -0.201411
107 -0.893142 1.86011 3.8361 -0.584325 -0.235212 0.584642
189 0.0236546 1.65079 2.99814 0.173662 -1.13014 1.04672
170 -0.0119299 0.96592 3.87909 -0.876923 -1.06109 0.971804
169 -0.0884237 0.0857947 3.10055 0.3707 0.748353 0.0636598
171 0.767984 0.120618 3.90088 0.014842 1.40092 -1.38443
167 0.801168 0.121009 2.37858 -0.236569 0.483951 -0.751962
253 1.66301 0.226207 3.37447 0.744151 -0.910037 -0.0570389
172 0.804054 0.876077 3.15609 -0.0256339 -0.262939 -0.366279
187 0.825805 1.77926 2.35419 -0.411345 -0.249322 0.438216
250 1.61608 0.824972 2.39163 -0.30393 -0.00160183 0.470723
191 1.13814 2.23553 3.38739 0.0813419 0.795621 0.247669
254 1.81489 1.34547 3.33562 0.991516 -0.286316 0.844025
273 1.84992 2.07627 2.60972 -0.397846 -0.266038 0.114291
251 2.42074 0.126468 2.45029 -0.561591 -0.0283124 0.0631097
271 2.67085 1.28424 2.62152 -0.0778104 -0.358525 -0.963231
324 2.76186 0.723051 3.48061 0.716442 -0.386539 0.503515
322 3.46866 0.427574 2.67602 -0.714507 1.05745 1.36498
256 2.69208 1.81605 3.79907 0.48714 1.24794 0.300706
318 3.74901 1.43541 2.94681 0.21808 0.188031 -1.08889
119 -0.854752 3.26136 2.13984 -0.505191 0.247957 -1.391
108 -0.954005 2.47133 2.94299 1.26566 -0.161874 0.401434
106 -1.72088 2.5361 2.30712 -0.132236 -0.448855 1.08073
186 0.00273677 2.50547 2.30872 -0.692033 -0.617373 -0.736426
33 0.113021 3.63584 2.36474 0.208879 -0.0485806 -0.733709
192 0.161049 2.6254 3.43524 -0.692735 1.69292 0.0204436
270 1.0453 2.93227 2.52306 -0.0513797 0.0384254 0.147101
283 3.78879 2.25953 2.04636 0.0576769 -1.21028 -0.0312515
255 2.18523 3.10191 2.82709 0.602802 -0.380453 0.112509
202 2.9747 2.30675 2.82729 -0.213415 0.586169 -0.133187
286 3.01427 3.15744 2.08129 0.840856 -0.224475 0.56961
65 -0.339019 -0.116617 4.13457 0.381736 -0.480679 -0.550898
233 1.48548 -0.689996 3.96451 -0.663776 -0.104649 -0.37049
151 0.243354 -1.03671 4.0858 0.520896 -0.557575 -0.640432
236 2.46935 -0.0829476 4.18083 0.47333 0.735227 -0.687896
86 -1.19646 0.81148 4.10567 -0.642785 0.283143 0.912744
234 1.41306 0.269218 4.82238 1.70303 0.165907 0.388172
276 0.997037 1.15812 4.29853 0.308872 0.107725 -0.0374604
190 0.103468 1.91122 4.25981 -0.546691 0.568528 0.483958
275 3.6753 1.15325 3.93783 0.279939 0.994455 -2.11129
274 2.13963 0.969401 4.30609 -0.118244 0.418973 0.122423
